
     Program PWSCF v.6.7GPU starts on 21Feb2022 at 12:12:52 

     This program is part of the open-source Quantum ESPRESSO suite
     for quantum simulation of materials; please cite
         "P. Giannozzi et al., J. Phys.:Condens. Matter 21 395502 (2009);
         "P. Giannozzi et al., J. Phys.:Condens. Matter 29 465901 (2017);
         "P. Giannozzi et al., J. Chem. Phys. 152 154105 (2020);
          URL http://www.quantum-espresso.org", 
     in publications or presentations arising from this work. More details at
     http://www.quantum-espresso.org/quote

     Parallel version (MPI), running on    16 processors

     MPI processes distributed on     1 nodes
     R & G space division:  proc/nbgrp/npool/nimage =      16
     Reading input from /storage/home/hcoda1/3/rxie43/pBlock/F/O/qe_4011318.sched-torque.pace.gatech.edu/pw.inp
Warning: card &CELL ignored
Warning: card   CELL_DYNAMICS='IPI', ignored
Warning: card / ignored

     Current dimensions of program PWSCF are:
     Max number of different atomic species (ntypx) = 10
     Max number of k-points (npk) =  40000
     Max angular momentum in pseudopotentials (lmaxx) =  3
     Message from routine cell_base_init:
     DEPRECATED: use true lattice parameter, not A to a.u. conversion factor
     file O.UPF: wavefunction(s)  2P renormalized

     **************************************************************************
     Initializing libbeef V0.1.2 with the BEEF-vdW functional.
     Citation: Wellendorff et al., PRB 85, 235149 (2012).
     **************************************************************************


     IMPORTANT: XC functional enforced from input :
     Exchange-correlation= BEEF-VDW
                           (   1   4  43  14   2   0   0)
     Any further DFT definition will be discarded
     Please, verify this is what you really want


     Subspace diagonalization in iterative solution of the eigenvalue problem:
     one sub-group per band group will be used
     scalapack distributed-memory algorithm (size of sub-group:  4*  4 procs)

  @ DRIVER MODE: Connecting to 
 qe_1130903_4011318.sched-torque.pace.gatech.edujl1cwdnm_scratch
  using UNIX socket
  @ DRIVER MODE: Message from server: STATUS
  @ DRIVER MODE: Message from server: INIT
  @ DRIVER MODE: Receiving replica           0          -1
  @ DRIVER MODE: Receiving encoded integer          25
  @ DRIVER MODE:  SCF:  T  FORCE:  T  STRESS:  F  VC:  F  ENSEMBLE:  F
  @ DRIVER MODE:  SCF:  T  FORCE:  T  STRESS:  F  VC:  F  ENSEMBLE:  F
 
     Parallelization info
     --------------------
     sticks:   dense  smooth     PW     G-vecs:    dense   smooth      PW
     Min         256     102     28                49498    12526    1868
     Max         257     103     29                49510    12535    1881
     Sum        4097    1637    459               792059   200495   30031
 
     Using Slab Decomposition
 


     bravais-lattice index     =            0
     lattice parameter (alat)  =       1.8897  a.u.
     unit-cell volume          =    6658.9804 (a.u.)^3
     number of atoms/cell      =           50
     number of atomic types    =            3
     number of electrons       =       397.00
     number of Kohn-Sham states=          208
     kinetic-energy cutoff     =      36.7493  Ry
     charge density cutoff     =     367.4932  Ry
     scf convergence threshold =      7.3E-08
     mixing beta               =       0.0500
     number of iterations used =            8  plain     mixing
     Exchange-correlation= BEEF-VDW
                           (   1   4  43  14   2   0   0)

     celldm(1)=   1.889726  celldm(2)=   0.000000  celldm(3)=   0.000000
     celldm(4)=   0.000000  celldm(5)=   0.000000  celldm(6)=   0.000000

     crystal axes: (cart. coord. in units of alat)
               a(1) = (   6.579727   0.000000   0.000000 )  
               a(2) = (  -0.000775   5.961596   0.000000 )  
               a(3) = (   0.000000   0.000000  25.155947 )  

     reciprocal axes: (cart. coord. in units 2 pi/alat)
               b(1) = (  0.151982  0.000020  0.000000 )  
               b(2) = (  0.000000  0.167740  0.000000 )  
               b(3) = (  0.000000  0.000000  0.039752 )  


     PseudoPot. # 1 for Ti read from file:
     /storage/coda1/p-amedford6/0/shared/rich_project_chbe-medford/medford-share/data/pseudos_module/espresso/esp_pseudos_old/Ti.UPF
     MD5 check sum: 88a00a6731bd790ddea75d31a80cb452
     Pseudo is Ultrasoft + core correction, Zval = 12.0
     Generated by new atomic code, or converted to UPF format
     Using radial grid of  851 points,  6 beta functions with: 
                l(1) =   0
                l(2) =   0
                l(3) =   1
                l(4) =   1
                l(5) =   2
                l(6) =   2
     Q(r) pseudized with  6 coefficients,  rinner =    1.000   1.000   1.000
                                                       1.000   1.000

     PseudoPot. # 2 for O  read from file:
     /storage/coda1/p-amedford6/0/shared/rich_project_chbe-medford/medford-share/data/pseudos_module/espresso/esp_pseudos_old/O.UPF
     MD5 check sum: 0234752ac141de4415c5fc33072bef88
     Pseudo is Projector augmented-wave + core cor, Zval =  6.0
     Generated using "atomic" code by A. Dal Corso  v.5.0.99 svn rev. 10869
     Shape of augmentation charge: BESSEL
     Using radial grid of 1095 points,  4 beta functions with: 
                l(1) =   0
                l(2) =   0
                l(3) =   1
                l(4) =   1
     Q(r) pseudized with 0 coefficients 


     PseudoPot. # 3 for F  read from file:
     /storage/coda1/p-amedford6/0/shared/rich_project_chbe-medford/medford-share/data/pseudos_module/espresso/esp_pseudos_old/F.UPF
     MD5 check sum: 4c38b6a325caf53ec0e86aed9459de46
     Pseudo is Ultrasoft, Zval =  7.0
     Generated by new atomic code, or converted to UPF format
     Using radial grid of  799 points,  4 beta functions with: 
                l(1) =   0
                l(2) =   0
                l(3) =   1
                l(4) =   1
     Q(r) pseudized with  8 coefficients,  rinner =    0.950   0.950   0.950


     atomic species   valence    mass     pseudopotential
        Ti1           12.00    47.86700     Ti( 1.00)
        O1             6.00    15.99900     O ( 1.00)
        F1             7.00    18.99840     F ( 1.00)

     Starting magnetic structure 
     atomic species   magnetization
        Ti1          0.000
        O1           0.000
        F1           0.000

     No symmetry found



   Cartesian axes

     site n.     atom                  positions (alat units)
         1           Ti1 tau(   1) = (   0.0004258   2.9801865   6.0000000  )
         2           Ti1 tau(   2) = (   3.2906075   1.4906267   6.0002472  )
         3           O1  tau(   3) = (   0.0006271   0.0005054   7.9858123  )
         4           O1  tau(   4) = (   3.2906025   0.0005020   7.3038282  )
         5           O1  tau(   5) = (   4.5942328   1.4918067   9.2879030  )
         6           O1  tau(   6) = (   1.9868534   1.4903216   9.2879459  )
         7           Ti1 tau(   7) = (   3.2905683   2.9818392   9.1597947  )
         8           Ti1 tau(   8) = (   0.0009689   1.5052867   9.3302970  )
         9           O1  tau(   9) = (   3.2906296   0.0008011  11.3650401  )
        10           O1  tau(  10) = (   0.0007044   0.0001637  10.5878211  )
        11           O1  tau(  11) = (   1.2916503   1.4840475  12.6499259  )
        12           O1  tau(  12) = (   5.2890670   1.4839103  12.6499172  )
        13           Ti1 tau(  13) = (   0.0003471   2.9805890  12.8340280  )
        14           Ti1 tau(  14) = (   3.2904058   1.4906750  12.5078451  )
        15           O1  tau(  15) = (   0.0005791   0.0029611  14.7419464  )
        16           O1  tau(  16) = (   3.2903900   0.0020092  13.9623737  )
        17           O1  tau(  17) = (   4.5473729   1.4978211  16.1092662  )
        18           O1  tau(  18) = (   2.0330876   1.4977713  16.1093153  )
        19           Ti1 tau(  19) = (   3.2900215   2.9838978  15.7504520  )
        20           Ti1 tau(  20) = (   0.0002429   1.3930638  16.0611020  )
        21           O1  tau(  21) = (   3.2904802   0.0005063   4.7018136  )
        22           O1  tau(  22) = (   0.0005680   0.0022684  17.2418851  )
        23           O1  tau(  23) = (   1.3043587   1.4918075   6.0039043  )
        24           O1  tau(  24) = (   5.2767064   1.4903225   6.0039473  )
        25           Ti1 tau(  25) = (   0.0000382   5.9609847   6.0000000  )
        26           Ti1 tau(  26) = (   3.2902200   4.4714249   6.0002472  )
        27           O1  tau(  27) = (   0.0002396   2.9813036   7.9858123  )
        28           O1  tau(  28) = (   3.2902150   2.9813002   7.3038282  )
        29           O1  tau(  29) = (   4.5938453   4.4726049   9.2879030  )
        30           O1  tau(  30) = (   1.9864658   4.4711199   9.2879459  )
        31           Ti1 tau(  31) = (   3.2909982   0.0016570   9.1583503  )
        32           Ti1 tau(  32) = (   0.0005865   4.4518293   9.3323505  )
        33           O1  tau(  33) = (   3.2902211   2.9814704  11.3676522  )
        34           O1  tau(  34) = (   0.0003571   2.9798178  10.5649370  )
        35           O1  tau(  35) = (   1.2912824   4.4789975  12.6497594  )
        36           O1  tau(  36) = (   5.2886310   4.4788489  12.6498707  )
        37           Ti1 tau(  37) = (  -0.0000852   5.9614161  12.5308217  )
        38           Ti1 tau(  38) = (   3.2900106   4.4711686  12.5075749  )
        39           O1  tau(  39) = (   0.0002811   2.9836360  14.7019557  )
        40           O1  tau(  40) = (   3.2900852   2.9824046  13.9564577  )
        41           O1  tau(  41) = (   4.5467726   4.4698619  16.1079114  )
        42           O1  tau(  42) = (   2.0328856   4.4697323  16.1079673  )
        43           Ti1 tau(  43) = (   3.2902371   0.0024796  15.7542411  )
        44           Ti1 tau(  44) = (  -0.0001846   4.5739219  16.0548636  )
        45           O1  tau(  45) = (   3.2900926   2.9813045   4.7018136  )
        46           F1  tau(  46) = (   0.0000373   2.9839083  17.2994065  )
        47           O1  tau(  47) = (   1.3039711   4.4726057   6.0039043  )
        48           O1  tau(  48) = (   5.2763189   4.4711207   6.0039473  )
        49           O1  tau(  49) = (   6.3491669   2.7825235  18.4994065  )
        50           O1  tau(  50) = (   6.2271734   2.6017940  19.5994065  )

     number of k points=    10  Fermi-Dirac smearing, width (Ry)=  0.0007
                       cart. coord. in units 2pi/alat
        k(    1) = (   0.0000000   0.0000000   0.0000000), wk =   0.0625000
        k(    2) = (   0.0000000   0.0419351   0.0000000), wk =   0.1250000
        k(    3) = (   0.0000000  -0.0838702   0.0000000), wk =   0.0625000
        k(    4) = (   0.0379955   0.0000049   0.0000000), wk =   0.1250000
        k(    5) = (   0.0379955   0.0419400   0.0000000), wk =   0.1250000
        k(    6) = (   0.0379955  -0.0838652   0.0000000), wk =   0.1250000
        k(    7) = (   0.0379955  -0.0419301   0.0000000), wk =   0.1250000
        k(    8) = (  -0.0759910  -0.0000099   0.0000000), wk =   0.0625000
        k(    9) = (  -0.0759910   0.0419252   0.0000000), wk =   0.1250000
        k(   10) = (  -0.0759910  -0.0838800   0.0000000), wk =   0.0625000

     Dense  grid:   792059 G-vectors     FFT dimensions: (  75,  72, 300)

     Smooth grid:   200495 G-vectors     FFT dimensions: (  48,  45, 192)

     Estimated max dynamical RAM per process >     386.45 MB

     Estimated total dynamical RAM >       6.04 GB

     Check: negative core charge=   -0.000008
     Generating pointlists ...
     new r_m :   0.7391 (alat units)  1.3968 (a.u.) for type    1
     new r_m :   0.4626 (alat units)  0.8741 (a.u.) for type    2
     new r_m :   0.5109 (alat units)  0.9654 (a.u.) for type    3

     Initial potential from superposition of free atoms

     starting charge  380.99925, renormalised to  397.00000

     negative rho (up, down):  1.170E-02 1.170E-02


     %%%%%%%%%%%%%%%%%%%%%%%%%%%%%%%%%%%%%%%%%%%%%%%%%%%%%%%%%%%%%%%%%%%%%%%%
     %                                                                      %
     % You are using vdW-DF, which was implemented by the Thonhauser group. %
     % Please cite the following two papers that made this development      %
     % possible and the two reviews that describe the various versions:     %
     %                                                                      %
     %   T. Thonhauser et al., PRL 115, 136402 (2015).                      %
     %   T. Thonhauser et al., PRB 76, 125112 (2007).                       %
     %   K. Berland et al., Rep. Prog. Phys. 78, 066501 (2015).             %
     %   D.C. Langreth et al., J. Phys.: Condens. Matter 21, 084203 (2009). %
     %                                                                      %
     %                                                                      %
     % If you are calculating the stress with vdW-DF, please also cite:     %
     %                                                                      %
     %   R. Sabatini et al., J. Phys.: Condens. Matter 24, 424209 (2012).   %
     %                                                                      %
     %%%%%%%%%%%%%%%%%%%%%%%%%%%%%%%%%%%%%%%%%%%%%%%%%%%%%%%%%%%%%%%%%%%%%%%%


 
     Adding external electric field

     Computed dipole along edir(3) : 
        Dipole               -9.1882 Ry au,        -23.3540 Debye
        Dipole field         -0.0173 Ry au, 
 
        Potential amp.        1.6073 Ry
        Total length         46.3494 bohr
 
 
     Adding external electric field

     Computed dipole along edir(3) : 
        Dipole               -9.1882 Ry au,        -23.3540 Debye
        Dipole field         -0.0173 Ry au, 
 
        Potential amp.        1.6073 Ry
        Total length         46.3494 bohr
 
     Starting wfcs are  296 randomized atomic wfcs
     Checking if some PAW data can be deallocated... 
  @ DRIVER MODE: Message from server: STATUS
  @ DRIVER MODE: Message from server: POSDATA
  @ DRIVER MODE: Reading and sharing cell 
  @ DRIVER MODE: Reading and sharing positions 
  @ DRIVER MODE: Received positions 

     total cpu time spent up to now is       17.6 secs

     Self-consistent Calculation

     iteration #  1     ecut=    36.75 Ry     beta= 0.05
     Davidson diagonalization with overlap
     ethr =  1.00E-02,  avg # of iterations =  3.5

     negative rho (up, down):  1.028E-02 1.027E-02
 
     Adding external electric field

     Computed dipole along edir(3) : 
        Dipole               41.3165 Ry au,        105.0161 Debye
        Dipole field          0.0780 Ry au, 
 
        Potential amp.       -7.2277 Ry
        Total length         46.3494 bohr
 
 
     Adding external electric field

     Computed dipole along edir(3) : 
        Dipole               41.3165 Ry au,        105.0161 Debye
        Dipole field          0.0780 Ry au, 
 
        Potential amp.       -7.2277 Ry
        Total length         46.3494 bohr
 

     total cpu time spent up to now is       39.0 secs

     total energy              =   -2992.07693363 Ry
     estimated scf accuracy    <    4283.79263684 Ry

     total magnetization       =     0.04 Bohr mag/cell
     absolute magnetization    =     0.21 Bohr mag/cell

     iteration #  2     ecut=    36.75 Ry     beta= 0.05
     Davidson diagonalization with overlap
     c_bands:  1 eigenvalues not converged
     ethr =  1.00E-02,  avg # of iterations = 18.6

     negative rho (up, down):  9.698E-03 9.683E-03
 
     Adding external electric field

     Computed dipole along edir(3) : 
        Dipole               -3.1336 Ry au,         -7.9648 Debye
        Dipole field         -0.0059 Ry au, 
 
        Potential amp.        0.5482 Ry
        Total length         46.3494 bohr
 
 
     Adding external electric field

     Computed dipole along edir(3) : 
        Dipole               -3.1336 Ry au,         -7.9648 Debye
        Dipole field         -0.0059 Ry au, 
 
        Potential amp.        0.5482 Ry
        Total length         46.3494 bohr
 

     total cpu time spent up to now is      147.0 secs

     total energy              =   -2884.88163423 Ry
     estimated scf accuracy    <   65862.33879887 Ry

     total magnetization       =     0.50 Bohr mag/cell
     absolute magnetization    =     0.79 Bohr mag/cell

     iteration #  3     ecut=    36.75 Ry     beta= 0.05
     Davidson diagonalization with overlap
     ethr =  1.00E-02,  avg # of iterations = 14.3

     negative rho (up, down):  9.427E-03 9.410E-03
 
     Adding external electric field

     Computed dipole along edir(3) : 
        Dipole               -5.1470 Ry au,        -13.0824 Debye
        Dipole field         -0.0097 Ry au, 
 
        Potential amp.        0.9004 Ry
        Total length         46.3494 bohr
 
 
     Adding external electric field

     Computed dipole along edir(3) : 
        Dipole               -5.1470 Ry au,        -13.0824 Debye
        Dipole field         -0.0097 Ry au, 
 
        Potential amp.        0.9004 Ry
        Total length         46.3494 bohr
 

     total cpu time spent up to now is      224.6 secs

     total energy              =   -3355.53339916 Ry
     estimated scf accuracy    <    4167.34171805 Ry

     total magnetization       =    -0.35 Bohr mag/cell
     absolute magnetization    =     0.46 Bohr mag/cell

     iteration #  4     ecut=    36.75 Ry     beta= 0.05
     Davidson diagonalization with overlap
     c_bands:  2 eigenvalues not converged
     c_bands:  3 eigenvalues not converged
     c_bands:  4 eigenvalues not converged
     c_bands:  1 eigenvalues not converged
     c_bands:  5 eigenvalues not converged
     c_bands:  3 eigenvalues not converged
     c_bands:  1 eigenvalues not converged
     c_bands:  1 eigenvalues not converged
     ethr =  1.00E-02,  avg # of iterations = 17.4

     negative rho (up, down):  9.545E-03 9.531E-03
 
     Adding external electric field

     Computed dipole along edir(3) : 
        Dipole               -5.9361 Ry au,        -15.0880 Debye
        Dipole field         -0.0112 Ry au, 
 
        Potential amp.        1.0384 Ry
        Total length         46.3494 bohr
 
 
     Adding external electric field

     Computed dipole along edir(3) : 
        Dipole               -5.9361 Ry au,        -15.0880 Debye
        Dipole field         -0.0112 Ry au, 
 
        Potential amp.        1.0384 Ry
        Total length         46.3494 bohr
 

     total cpu time spent up to now is      263.6 secs

     total energy              =   -3370.83250401 Ry
     estimated scf accuracy    <     452.32673804 Ry

     total magnetization       =     0.44 Bohr mag/cell
     absolute magnetization    =     0.76 Bohr mag/cell

     iteration #  5     ecut=    36.75 Ry     beta= 0.05
     Davidson diagonalization with overlap
     ethr =  1.00E-02,  avg # of iterations =  4.5

     negative rho (up, down):  9.706E-03 9.685E-03
 
     Adding external electric field

     Computed dipole along edir(3) : 
        Dipole               -6.3771 Ry au,        -16.2089 Debye
        Dipole field         -0.0120 Ry au, 
 
        Potential amp.        1.1156 Ry
        Total length         46.3494 bohr
 
 
     Adding external electric field

     Computed dipole along edir(3) : 
        Dipole               -6.3771 Ry au,        -16.2089 Debye
        Dipole field         -0.0120 Ry au, 
 
        Potential amp.        1.1156 Ry
        Total length         46.3494 bohr
 

     total cpu time spent up to now is      283.6 secs

     total energy              =   -3369.76518390 Ry
     estimated scf accuracy    <     257.41765193 Ry

     total magnetization       =    -0.37 Bohr mag/cell
     absolute magnetization    =     1.00 Bohr mag/cell

     iteration #  6     ecut=    36.75 Ry     beta= 0.05
     Davidson diagonalization with overlap
     ethr =  1.00E-02,  avg # of iterations =  4.3

     negative rho (up, down):  1.002E-02 1.001E-02
 
     Adding external electric field

     Computed dipole along edir(3) : 
        Dipole               -6.6452 Ry au,        -16.8905 Debye
        Dipole field         -0.0125 Ry au, 
 
        Potential amp.        1.1625 Ry
        Total length         46.3494 bohr
 
 
     Adding external electric field

     Computed dipole along edir(3) : 
        Dipole               -6.6452 Ry au,        -16.8905 Debye
        Dipole field         -0.0125 Ry au, 
 
        Potential amp.        1.1625 Ry
        Total length         46.3494 bohr
 

     total cpu time spent up to now is      307.3 secs

     total energy              =   -3367.94414006 Ry
     estimated scf accuracy    <     161.78082190 Ry

     total magnetization       =    -0.24 Bohr mag/cell
     absolute magnetization    =     0.85 Bohr mag/cell

     iteration #  7     ecut=    36.75 Ry     beta= 0.05
     Davidson diagonalization with overlap
     ethr =  1.00E-02,  avg # of iterations =  9.5

     negative rho (up, down):  9.914E-03 9.895E-03
 
     Adding external electric field

     Computed dipole along edir(3) : 
        Dipole               -5.7573 Ry au,        -14.6336 Debye
        Dipole field         -0.0109 Ry au, 
 
        Potential amp.        1.0072 Ry
        Total length         46.3494 bohr
 
 
     Adding external electric field

     Computed dipole along edir(3) : 
        Dipole               -5.7573 Ry au,        -14.6336 Debye
        Dipole field         -0.0109 Ry au, 
 
        Potential amp.        1.0072 Ry
        Total length         46.3494 bohr
 

     total cpu time spent up to now is      336.6 secs

     total energy              =   -3376.78738281 Ry
     estimated scf accuracy    <      59.22485605 Ry

     total magnetization       =    -0.74 Bohr mag/cell
     absolute magnetization    =     0.89 Bohr mag/cell

     iteration #  8     ecut=    36.75 Ry     beta= 0.05
     Davidson diagonalization with overlap
     ethr =  1.00E-02,  avg # of iterations =  1.3

     negative rho (up, down):  9.985E-03 9.999E-03
 
     Adding external electric field

     Computed dipole along edir(3) : 
        Dipole               -4.9011 Ry au,        -12.4573 Debye
        Dipole field         -0.0092 Ry au, 
 
        Potential amp.        0.8574 Ry
        Total length         46.3494 bohr
 
 
     Adding external electric field

     Computed dipole along edir(3) : 
        Dipole               -4.9011 Ry au,        -12.4573 Debye
        Dipole field         -0.0092 Ry au, 
 
        Potential amp.        0.8574 Ry
        Total length         46.3494 bohr
 

     total cpu time spent up to now is      354.1 secs

     total energy              =   -3376.38637407 Ry
     estimated scf accuracy    <      17.94756241 Ry

     total magnetization       =    -0.76 Bohr mag/cell
     absolute magnetization    =     1.10 Bohr mag/cell

     iteration #  9     ecut=    36.75 Ry     beta= 0.05
     Davidson diagonalization with overlap
     c_bands:  1 eigenvalues not converged
     ethr =  4.52E-03,  avg # of iterations =  3.5

     negative rho (up, down):  9.865E-03 9.852E-03
 
     Adding external electric field

     Computed dipole along edir(3) : 
        Dipole               -5.5437 Ry au,        -14.0906 Debye
        Dipole field         -0.0105 Ry au, 
 
        Potential amp.        0.9698 Ry
        Total length         46.3494 bohr
 
 
     Adding external electric field

     Computed dipole along edir(3) : 
        Dipole               -5.5437 Ry au,        -14.0906 Debye
        Dipole field         -0.0105 Ry au, 
 
        Potential amp.        0.9698 Ry
        Total length         46.3494 bohr
 

     total cpu time spent up to now is      373.4 secs

     total energy              =   -3377.35745321 Ry
     estimated scf accuracy    <      19.61373192 Ry

     total magnetization       =    -0.37 Bohr mag/cell
     absolute magnetization    =     0.75 Bohr mag/cell

     iteration # 10     ecut=    36.75 Ry     beta= 0.05
     Davidson diagonalization with overlap
     ethr =  4.52E-03,  avg # of iterations =  1.2

     negative rho (up, down):  1.112E-02 1.846E-02
 
     Adding external electric field

     Computed dipole along edir(3) : 
        Dipole                1.7180 Ry au,          4.3667 Debye
        Dipole field          0.0032 Ry au, 
 
        Potential amp.       -0.3005 Ry
        Total length         46.3494 bohr
 
 
     Adding external electric field

     Computed dipole along edir(3) : 
        Dipole                1.7180 Ry au,          4.3667 Debye
        Dipole field          0.0032 Ry au, 
 
        Potential amp.       -0.3005 Ry
        Total length         46.3494 bohr
 

     total cpu time spent up to now is      396.5 secs

     total energy              =   -3374.04546474 Ry
     estimated scf accuracy    <      16.94507949 Ry

     total magnetization       =    -0.44 Bohr mag/cell
     absolute magnetization    =     0.48 Bohr mag/cell

     iteration # 11     ecut=    36.75 Ry     beta= 0.05
     Davidson diagonalization with overlap
     ethr =  4.27E-03,  avg # of iterations = 13.6

     negative rho (up, down):  1.111E-02 1.387E-02
 
     Adding external electric field

     Computed dipole along edir(3) : 
        Dipole                1.0777 Ry au,          2.7393 Debye
        Dipole field          0.0020 Ry au, 
 
        Potential amp.       -0.1885 Ry
        Total length         46.3494 bohr
 
 
     Adding external electric field

     Computed dipole along edir(3) : 
        Dipole                1.0777 Ry au,          2.7393 Debye
        Dipole field          0.0020 Ry au, 
 
        Potential amp.       -0.1885 Ry
        Total length         46.3494 bohr
 

     total cpu time spent up to now is      445.3 secs

     total energy              =   -3393.96364268 Ry
     estimated scf accuracy    <    3021.69769473 Ry

     total magnetization       =    -0.22 Bohr mag/cell
     absolute magnetization    =     0.37 Bohr mag/cell

     iteration # 12     ecut=    36.75 Ry     beta= 0.05
     Davidson diagonalization with overlap
     ethr =  4.27E-03,  avg # of iterations =  1.8

     negative rho (up, down):  1.116E-02 1.314E-02
 
     Adding external electric field

     Computed dipole along edir(3) : 
        Dipole                0.9006 Ry au,          2.2891 Debye
        Dipole field          0.0017 Ry au, 
 
        Potential amp.       -0.1575 Ry
        Total length         46.3494 bohr
 
 
     Adding external electric field

     Computed dipole along edir(3) : 
        Dipole                0.9006 Ry au,          2.2891 Debye
        Dipole field          0.0017 Ry au, 
 
        Potential amp.       -0.1575 Ry
        Total length         46.3494 bohr
 

     total cpu time spent up to now is      463.9 secs

     total energy              =   -3392.32355059 Ry
     estimated scf accuracy    <    2387.90023506 Ry

     total magnetization       =    -0.05 Bohr mag/cell
     absolute magnetization    =     0.38 Bohr mag/cell

     iteration # 13     ecut=    36.75 Ry     beta= 0.05
     Davidson diagonalization with overlap
     ethr =  4.27E-03,  avg # of iterations =  1.6

     negative rho (up, down):  1.123E-02 1.292E-02
 
     Adding external electric field

     Computed dipole along edir(3) : 
        Dipole                0.4218 Ry au,          1.0720 Debye
        Dipole field          0.0008 Ry au, 
 
        Potential amp.       -0.0738 Ry
        Total length         46.3494 bohr
 
 
     Adding external electric field

     Computed dipole along edir(3) : 
        Dipole                0.4218 Ry au,          1.0720 Debye
        Dipole field          0.0008 Ry au, 
 
        Potential amp.       -0.0738 Ry
        Total length         46.3494 bohr
 

     total cpu time spent up to now is      481.7 secs

     total energy              =   -3387.12952970 Ry
     estimated scf accuracy    <    2345.78527777 Ry

     total magnetization       =     0.12 Bohr mag/cell
     absolute magnetization    =     0.43 Bohr mag/cell

     iteration # 14     ecut=    36.75 Ry     beta= 0.05
     Davidson diagonalization with overlap
     ethr =  4.27E-03,  avg # of iterations =  6.2

     negative rho (up, down):  1.085E-02 1.113E-02
 
     Adding external electric field

     Computed dipole along edir(3) : 
        Dipole               -1.7917 Ry au,         -4.5540 Debye
        Dipole field         -0.0034 Ry au, 
 
        Potential amp.        0.3134 Ry
        Total length         46.3494 bohr
 
 
     Adding external electric field

     Computed dipole along edir(3) : 
        Dipole               -1.7917 Ry au,         -4.5540 Debye
        Dipole field         -0.0034 Ry au, 
 
        Potential amp.        0.3134 Ry
        Total length         46.3494 bohr
 

     total cpu time spent up to now is      508.6 secs

     total energy              =   -3371.15930369 Ry
     estimated scf accuracy    <    1985.50042246 Ry

     total magnetization       =     0.24 Bohr mag/cell
     absolute magnetization    =     0.47 Bohr mag/cell

     iteration # 15     ecut=    36.75 Ry     beta= 0.05
     Davidson diagonalization with overlap
     c_bands:  4 eigenvalues not converged
     c_bands:  4 eigenvalues not converged
     c_bands:  1 eigenvalues not converged
     ethr =  4.27E-03,  avg # of iterations = 13.0

     negative rho (up, down):  1.081E-02 1.113E-02
 
     Adding external electric field

     Computed dipole along edir(3) : 
        Dipole               -2.7518 Ry au,         -6.9944 Debye
        Dipole field         -0.0052 Ry au, 
 
        Potential amp.        0.4814 Ry
        Total length         46.3494 bohr
 
 
     Adding external electric field

     Computed dipole along edir(3) : 
        Dipole               -2.7518 Ry au,         -6.9944 Debye
        Dipole field         -0.0052 Ry au, 
 
        Potential amp.        0.4814 Ry
        Total length         46.3494 bohr
 

     total cpu time spent up to now is      540.0 secs

     total energy              =   -3371.32690317 Ry
     estimated scf accuracy    <     918.47045393 Ry

     total magnetization       =     0.11 Bohr mag/cell
     absolute magnetization    =     0.86 Bohr mag/cell

     iteration # 16     ecut=    36.75 Ry     beta= 0.05
     Davidson diagonalization with overlap
     c_bands:  2 eigenvalues not converged
     ethr =  4.27E-03,  avg # of iterations =  7.2

     negative rho (up, down):  1.096E-02 1.132E-02
 
     Adding external electric field

     Computed dipole along edir(3) : 
        Dipole               -3.2762 Ry au,         -8.3272 Debye
        Dipole field         -0.0062 Ry au, 
 
        Potential amp.        0.5731 Ry
        Total length         46.3494 bohr
 
 
     Adding external electric field

     Computed dipole along edir(3) : 
        Dipole               -3.2762 Ry au,         -8.3272 Debye
        Dipole field         -0.0062 Ry au, 
 
        Potential amp.        0.5731 Ry
        Total length         46.3494 bohr
 

     total cpu time spent up to now is      564.6 secs

     total energy              =   -3370.91212973 Ry
     estimated scf accuracy    <     425.61993289 Ry

     total magnetization       =     1.34 Bohr mag/cell
     absolute magnetization    =     1.45 Bohr mag/cell

     iteration # 17     ecut=    36.75 Ry     beta= 0.05
     Davidson diagonalization with overlap
     ethr =  4.27E-03,  avg # of iterations =  6.2

     negative rho (up, down):  1.118E-02 1.157E-02
 
     Adding external electric field

     Computed dipole along edir(3) : 
        Dipole               -3.5162 Ry au,         -8.9373 Debye
        Dipole field         -0.0066 Ry au, 
 
        Potential amp.        0.6151 Ry
        Total length         46.3494 bohr
 
 
     Adding external electric field

     Computed dipole along edir(3) : 
        Dipole               -3.5162 Ry au,         -8.9373 Debye
        Dipole field         -0.0066 Ry au, 
 
        Potential amp.        0.6151 Ry
        Total length         46.3494 bohr
 

     total cpu time spent up to now is      596.1 secs

     total energy              =   -3373.15966209 Ry
     estimated scf accuracy    <      91.66750532 Ry

     total magnetization       =    -1.17 Bohr mag/cell
     absolute magnetization    =     1.34 Bohr mag/cell

     iteration # 18     ecut=    36.75 Ry     beta= 0.05
     Davidson diagonalization with overlap
     ethr =  4.27E-03,  avg # of iterations =  2.6

     negative rho (up, down):  1.150E-02 1.183E-02
 
     Adding external electric field

     Computed dipole along edir(3) : 
        Dipole               -4.3142 Ry au,        -10.9656 Debye
        Dipole field         -0.0081 Ry au, 
 
        Potential amp.        0.7547 Ry
        Total length         46.3494 bohr
 
 
     Adding external electric field

     Computed dipole along edir(3) : 
        Dipole               -4.3142 Ry au,        -10.9656 Debye
        Dipole field         -0.0081 Ry au, 
 
        Potential amp.        0.7547 Ry
        Total length         46.3494 bohr
 

     total cpu time spent up to now is      617.6 secs

     total energy              =   -3371.25368137 Ry
     estimated scf accuracy    <      71.29834541 Ry

     total magnetization       =    -0.76 Bohr mag/cell
     absolute magnetization    =     1.54 Bohr mag/cell

     iteration # 19     ecut=    36.75 Ry     beta= 0.05
     Davidson diagonalization with overlap
     ethr =  4.27E-03,  avg # of iterations = 10.2

     negative rho (up, down):  1.149E-02 1.185E-02
 
     Adding external electric field

     Computed dipole along edir(3) : 
        Dipole               -4.1492 Ry au,        -10.5463 Debye
        Dipole field         -0.0078 Ry au, 
 
        Potential amp.        0.7258 Ry
        Total length         46.3494 bohr
 
 
     Adding external electric field

     Computed dipole along edir(3) : 
        Dipole               -4.1492 Ry au,        -10.5463 Debye
        Dipole field         -0.0078 Ry au, 
 
        Potential amp.        0.7258 Ry
        Total length         46.3494 bohr
 

     total cpu time spent up to now is      648.6 secs

     total energy              =   -3377.30869359 Ry
     estimated scf accuracy    <     130.26803878 Ry

     total magnetization       =     0.65 Bohr mag/cell
     absolute magnetization    =     1.12 Bohr mag/cell

     iteration # 20     ecut=    36.75 Ry     beta= 0.05
     Davidson diagonalization with overlap
     ethr =  4.27E-03,  avg # of iterations =  1.9

     negative rho (up, down):  1.161E-02 1.201E-02
 
     Adding external electric field

     Computed dipole along edir(3) : 
        Dipole               -4.4330 Ry au,        -11.2676 Debye
        Dipole field         -0.0084 Ry au, 
 
        Potential amp.        0.7755 Ry
        Total length         46.3494 bohr
 
 
     Adding external electric field

     Computed dipole along edir(3) : 
        Dipole               -4.4330 Ry au,        -11.2676 Debye
        Dipole field         -0.0084 Ry au, 
 
        Potential amp.        0.7755 Ry
        Total length         46.3494 bohr
 

     total cpu time spent up to now is      667.5 secs

     total energy              =   -3376.87841814 Ry
     estimated scf accuracy    <     167.46574065 Ry

     total magnetization       =     0.89 Bohr mag/cell
     absolute magnetization    =     1.29 Bohr mag/cell

     iteration # 21     ecut=    36.75 Ry     beta= 0.05
     Davidson diagonalization with overlap
     ethr =  4.27E-03,  avg # of iterations =  1.2

     negative rho (up, down):  1.205E-02 1.318E-02
 
     Adding external electric field

     Computed dipole along edir(3) : 
        Dipole               -4.4431 Ry au,        -11.2933 Debye
        Dipole field         -0.0084 Ry au, 
 
        Potential amp.        0.7773 Ry
        Total length         46.3494 bohr
 
 
     Adding external electric field

     Computed dipole along edir(3) : 
        Dipole               -4.4431 Ry au,        -11.2933 Debye
        Dipole field         -0.0084 Ry au, 
 
        Potential amp.        0.7773 Ry
        Total length         46.3494 bohr
 

     total cpu time spent up to now is      690.6 secs

     total energy              =   -3376.96290341 Ry
     estimated scf accuracy    <     129.95064869 Ry

     total magnetization       =     0.70 Bohr mag/cell
     absolute magnetization    =     0.96 Bohr mag/cell

     iteration # 22     ecut=    36.75 Ry     beta= 0.05
     Davidson diagonalization with overlap
     ethr =  4.27E-03,  avg # of iterations =  1.4

     negative rho (up, down):  1.283E-02 1.529E-02
 
     Adding external electric field

     Computed dipole along edir(3) : 
        Dipole               -4.3067 Ry au,        -10.9467 Debye
        Dipole field         -0.0081 Ry au, 
 
        Potential amp.        0.7534 Ry
        Total length         46.3494 bohr
 
 
     Adding external electric field

     Computed dipole along edir(3) : 
        Dipole               -4.3067 Ry au,        -10.9467 Debye
        Dipole field         -0.0081 Ry au, 
 
        Potential amp.        0.7534 Ry
        Total length         46.3494 bohr
 

     total cpu time spent up to now is      707.9 secs

     total energy              =   -3377.21017107 Ry
     estimated scf accuracy    <     113.77333699 Ry

     total magnetization       =     0.56 Bohr mag/cell
     absolute magnetization    =     0.76 Bohr mag/cell

     iteration # 23     ecut=    36.75 Ry     beta= 0.05
     Davidson diagonalization with overlap
     ethr =  4.27E-03,  avg # of iterations =  1.4

     negative rho (up, down):  1.388E-02 1.682E-02
 
     Adding external electric field

     Computed dipole along edir(3) : 
        Dipole               -4.3531 Ry au,        -11.0645 Debye
        Dipole field         -0.0082 Ry au, 
 
        Potential amp.        0.7615 Ry
        Total length         46.3494 bohr
 
 
     Adding external electric field

     Computed dipole along edir(3) : 
        Dipole               -4.3531 Ry au,        -11.0645 Debye
        Dipole field         -0.0082 Ry au, 
 
        Potential amp.        0.7615 Ry
        Total length         46.3494 bohr
 

     total cpu time spent up to now is      726.0 secs

     total energy              =   -3377.50898215 Ry
     estimated scf accuracy    <     109.60490943 Ry

     total magnetization       =     0.64 Bohr mag/cell
     absolute magnetization    =     0.90 Bohr mag/cell

     iteration # 24     ecut=    36.75 Ry     beta= 0.05
     Davidson diagonalization with overlap
     ethr =  4.27E-03,  avg # of iterations =  1.0

     negative rho (up, down):  1.182E-02 1.285E-02
 
     Adding external electric field

     Computed dipole along edir(3) : 
        Dipole               -4.0827 Ry au,        -10.3771 Debye
        Dipole field         -0.0077 Ry au, 
 
        Potential amp.        0.7142 Ry
        Total length         46.3494 bohr
 
 
     Adding external electric field

     Computed dipole along edir(3) : 
        Dipole               -4.0827 Ry au,        -10.3771 Debye
        Dipole field         -0.0077 Ry au, 
 
        Potential amp.        0.7142 Ry
        Total length         46.3494 bohr
 

     total cpu time spent up to now is      745.7 secs

     total energy              =   -3375.41224722 Ry
     estimated scf accuracy    <     109.35437940 Ry

     total magnetization       =     0.81 Bohr mag/cell
     absolute magnetization    =     1.00 Bohr mag/cell

     iteration # 25     ecut=    36.75 Ry     beta= 0.05
     Davidson diagonalization with overlap
     ethr =  4.27E-03,  avg # of iterations =  1.1

     negative rho (up, down):  1.046E-02 1.073E-02
 
     Adding external electric field

     Computed dipole along edir(3) : 
        Dipole               -1.9735 Ry au,         -5.0161 Debye
        Dipole field         -0.0037 Ry au, 
 
        Potential amp.        0.3452 Ry
        Total length         46.3494 bohr
 
 
     Adding external electric field

     Computed dipole along edir(3) : 
        Dipole               -1.9735 Ry au,         -5.0161 Debye
        Dipole field         -0.0037 Ry au, 
 
        Potential amp.        0.3452 Ry
        Total length         46.3494 bohr
 

     total cpu time spent up to now is      762.8 secs

     total energy              =   -3372.71779176 Ry
     estimated scf accuracy    <      54.68053723 Ry

     total magnetization       =     0.30 Bohr mag/cell
     absolute magnetization    =     0.49 Bohr mag/cell

     iteration # 26     ecut=    36.75 Ry     beta= 0.05
     Davidson diagonalization with overlap
     ethr =  4.27E-03,  avg # of iterations =  6.0

     negative rho (up, down):  1.068E-02 1.103E-02
 
     Adding external electric field

     Computed dipole along edir(3) : 
        Dipole               -1.7682 Ry au,         -4.4943 Debye
        Dipole field         -0.0033 Ry au, 
 
        Potential amp.        0.3093 Ry
        Total length         46.3494 bohr
 
 
     Adding external electric field

     Computed dipole along edir(3) : 
        Dipole               -1.7682 Ry au,         -4.4943 Debye
        Dipole field         -0.0033 Ry au, 
 
        Potential amp.        0.3093 Ry
        Total length         46.3494 bohr
 

     total cpu time spent up to now is      786.2 secs

     total energy              =   -3374.36237320 Ry
     estimated scf accuracy    <       5.18991384 Ry

     total magnetization       =    -0.51 Bohr mag/cell
     absolute magnetization    =     0.87 Bohr mag/cell

     iteration # 27     ecut=    36.75 Ry     beta= 0.05
     Davidson diagonalization with overlap
     ethr =  1.31E-03,  avg # of iterations = 10.1

     negative rho (up, down):  1.104E-02 1.172E-02
 
     Adding external electric field

     Computed dipole along edir(3) : 
        Dipole               -2.0223 Ry au,         -5.1401 Debye
        Dipole field         -0.0038 Ry au, 
 
        Potential amp.        0.3538 Ry
        Total length         46.3494 bohr
 
 
     Adding external electric field

     Computed dipole along edir(3) : 
        Dipole               -2.0223 Ry au,         -5.1401 Debye
        Dipole field         -0.0038 Ry au, 
 
        Potential amp.        0.3538 Ry
        Total length         46.3494 bohr
 

     total cpu time spent up to now is      813.3 secs

     total energy              =   -3374.98479185 Ry
     estimated scf accuracy    <       9.31142614 Ry

     total magnetization       =     0.21 Bohr mag/cell
     absolute magnetization    =     0.42 Bohr mag/cell

     iteration # 28     ecut=    36.75 Ry     beta= 0.05
     Davidson diagonalization with overlap
     ethr =  1.31E-03,  avg # of iterations =  1.9

     negative rho (up, down):  1.105E-02 1.161E-02
 
     Adding external electric field

     Computed dipole along edir(3) : 
        Dipole               -2.2531 Ry au,         -5.7269 Debye
        Dipole field         -0.0043 Ry au, 
 
        Potential amp.        0.3942 Ry
        Total length         46.3494 bohr
 
 
     Adding external electric field

     Computed dipole along edir(3) : 
        Dipole               -2.2531 Ry au,         -5.7269 Debye
        Dipole field         -0.0043 Ry au, 
 
        Potential amp.        0.3942 Ry
        Total length         46.3494 bohr
 

     total cpu time spent up to now is      832.1 secs

     total energy              =   -3374.81338469 Ry
     estimated scf accuracy    <       7.88652763 Ry

     total magnetization       =    -0.14 Bohr mag/cell
     absolute magnetization    =     0.74 Bohr mag/cell

     iteration # 29     ecut=    36.75 Ry     beta= 0.05
     Davidson diagonalization with overlap
     ethr =  1.31E-03,  avg # of iterations =  1.1

     negative rho (up, down):  1.136E-02 1.256E-02
 
     Adding external electric field

     Computed dipole along edir(3) : 
        Dipole               -2.4629 Ry au,         -6.2601 Debye
        Dipole field         -0.0046 Ry au, 
 
        Potential amp.        0.4309 Ry
        Total length         46.3494 bohr
 
 
     Adding external electric field

     Computed dipole along edir(3) : 
        Dipole               -2.4629 Ry au,         -6.2601 Debye
        Dipole field         -0.0046 Ry au, 
 
        Potential amp.        0.4309 Ry
        Total length         46.3494 bohr
 

     total cpu time spent up to now is      849.2 secs

     total energy              =   -3374.58037410 Ry
     estimated scf accuracy    <       2.96999535 Ry

     total magnetization       =     0.05 Bohr mag/cell
     absolute magnetization    =     0.27 Bohr mag/cell

     iteration # 30     ecut=    36.75 Ry     beta= 0.05
     Davidson diagonalization with overlap
     ethr =  7.48E-04,  avg # of iterations = 10.3

     negative rho (up, down):  1.139E-02 1.277E-02
 
     Adding external electric field

     Computed dipole along edir(3) : 
        Dipole               -2.5558 Ry au,         -6.4963 Debye
        Dipole field         -0.0048 Ry au, 
 
        Potential amp.        0.4471 Ry
        Total length         46.3494 bohr
 
 
     Adding external electric field

     Computed dipole along edir(3) : 
        Dipole               -2.5558 Ry au,         -6.4963 Debye
        Dipole field         -0.0048 Ry au, 
 
        Potential amp.        0.4471 Ry
        Total length         46.3494 bohr
 

     total cpu time spent up to now is      874.5 secs

     total energy              =   -3374.87301654 Ry
     estimated scf accuracy    <       6.04820497 Ry

     total magnetization       =     0.25 Bohr mag/cell
     absolute magnetization    =     0.40 Bohr mag/cell

     iteration # 31     ecut=    36.75 Ry     beta= 0.05
     Davidson diagonalization with overlap
     ethr =  7.48E-04,  avg # of iterations =  1.1

     negative rho (up, down):  1.141E-02 1.311E-02
 
     Adding external electric field

     Computed dipole along edir(3) : 
        Dipole               -2.5726 Ry au,         -6.5390 Debye
        Dipole field         -0.0049 Ry au, 
 
        Potential amp.        0.4500 Ry
        Total length         46.3494 bohr
 
 
     Adding external electric field

     Computed dipole along edir(3) : 
        Dipole               -2.5726 Ry au,         -6.5390 Debye
        Dipole field         -0.0049 Ry au, 
 
        Potential amp.        0.4500 Ry
        Total length         46.3494 bohr
 

     total cpu time spent up to now is      891.7 secs

     total energy              =   -3374.74592228 Ry
     estimated scf accuracy    <       6.01511106 Ry

     total magnetization       =     0.26 Bohr mag/cell
     absolute magnetization    =     0.41 Bohr mag/cell

     iteration # 32     ecut=    36.75 Ry     beta= 0.05
     Davidson diagonalization with overlap
     ethr =  7.48E-04,  avg # of iterations =  2.5

     negative rho (up, down):  1.148E-02 1.354E-02
 
     Adding external electric field

     Computed dipole along edir(3) : 
        Dipole               -2.3092 Ry au,         -5.8695 Debye
        Dipole field         -0.0044 Ry au, 
 
        Potential amp.        0.4040 Ry
        Total length         46.3494 bohr
 
 
     Adding external electric field

     Computed dipole along edir(3) : 
        Dipole               -2.3092 Ry au,         -5.8695 Debye
        Dipole field         -0.0044 Ry au, 
 
        Potential amp.        0.4040 Ry
        Total length         46.3494 bohr
 

     total cpu time spent up to now is      915.5 secs

     total energy              =   -3374.77241509 Ry
     estimated scf accuracy    <      10.22861295 Ry

     total magnetization       =    -0.01 Bohr mag/cell
     absolute magnetization    =     0.34 Bohr mag/cell

     iteration # 33     ecut=    36.75 Ry     beta= 0.05
     Davidson diagonalization with overlap
     ethr =  7.48E-04,  avg # of iterations =  1.4

     negative rho (up, down):  1.122E-02 1.275E-02
 
     Adding external electric field

     Computed dipole along edir(3) : 
        Dipole               -1.9192 Ry au,         -4.8782 Debye
        Dipole field         -0.0036 Ry au, 
 
        Potential amp.        0.3357 Ry
        Total length         46.3494 bohr
 
 
     Adding external electric field

     Computed dipole along edir(3) : 
        Dipole               -1.9192 Ry au,         -4.8782 Debye
        Dipole field         -0.0036 Ry au, 
 
        Potential amp.        0.3357 Ry
        Total length         46.3494 bohr
 

     total cpu time spent up to now is      932.9 secs

     total energy              =   -3374.59493121 Ry
     estimated scf accuracy    <       5.27691730 Ry

     total magnetization       =     0.09 Bohr mag/cell
     absolute magnetization    =     0.31 Bohr mag/cell

     iteration # 34     ecut=    36.75 Ry     beta= 0.05
     Davidson diagonalization with overlap
     ethr =  7.48E-04,  avg # of iterations =  3.0

     negative rho (up, down):  1.085E-02 1.169E-02
 
     Adding external electric field

     Computed dipole along edir(3) : 
        Dipole               -1.1112 Ry au,         -2.8245 Debye
        Dipole field         -0.0021 Ry au, 
 
        Potential amp.        0.1944 Ry
        Total length         46.3494 bohr
 
 
     Adding external electric field

     Computed dipole along edir(3) : 
        Dipole               -1.1112 Ry au,         -2.8245 Debye
        Dipole field         -0.0021 Ry au, 
 
        Potential amp.        0.1944 Ry
        Total length         46.3494 bohr
 

     total cpu time spent up to now is      951.8 secs

     total energy              =   -3374.66204523 Ry
     estimated scf accuracy    <       1.05585392 Ry

     total magnetization       =     0.26 Bohr mag/cell
     absolute magnetization    =     0.39 Bohr mag/cell

     iteration # 35     ecut=    36.75 Ry     beta= 0.05
     Davidson diagonalization with overlap
     c_bands:  1 eigenvalues not converged
     ethr =  2.66E-04,  avg # of iterations = 10.4

     negative rho (up, down):  1.079E-02 1.130E-02
 
     Adding external electric field

     Computed dipole along edir(3) : 
        Dipole               -1.0295 Ry au,         -2.6168 Debye
        Dipole field         -0.0019 Ry au, 
 
        Potential amp.        0.1801 Ry
        Total length         46.3494 bohr
 
 
     Adding external electric field

     Computed dipole along edir(3) : 
        Dipole               -1.0295 Ry au,         -2.6168 Debye
        Dipole field         -0.0019 Ry au, 
 
        Potential amp.        0.1801 Ry
        Total length         46.3494 bohr
 

     total cpu time spent up to now is      981.1 secs

     total energy              =   -3374.54204459 Ry
     estimated scf accuracy    <       8.89785362 Ry

     total magnetization       =    -0.48 Bohr mag/cell
     absolute magnetization    =     0.56 Bohr mag/cell

     iteration # 36     ecut=    36.75 Ry     beta= 0.05
     Davidson diagonalization with overlap
     ethr =  2.66E-04,  avg # of iterations =  6.2

     negative rho (up, down):  1.084E-02 1.150E-02
 
     Adding external electric field

     Computed dipole along edir(3) : 
        Dipole               -1.0495 Ry au,         -2.6676 Debye
        Dipole field         -0.0020 Ry au, 
 
        Potential amp.        0.1836 Ry
        Total length         46.3494 bohr
 
 
     Adding external electric field

     Computed dipole along edir(3) : 
        Dipole               -1.0495 Ry au,         -2.6676 Debye
        Dipole field         -0.0020 Ry au, 
 
        Potential amp.        0.1836 Ry
        Total length         46.3494 bohr
 

     total cpu time spent up to now is     1014.7 secs

     total energy              =   -3374.62019130 Ry
     estimated scf accuracy    <       1.99532256 Ry

     total magnetization       =     0.02 Bohr mag/cell
     absolute magnetization    =     0.14 Bohr mag/cell

     iteration # 37     ecut=    36.75 Ry     beta= 0.05
     Davidson diagonalization with overlap
     ethr =  2.66E-04,  avg # of iterations =  1.9

     negative rho (up, down):  1.083E-02 1.153E-02
 
     Adding external electric field

     Computed dipole along edir(3) : 
        Dipole               -1.0475 Ry au,         -2.6624 Debye
        Dipole field         -0.0020 Ry au, 
 
        Potential amp.        0.1832 Ry
        Total length         46.3494 bohr
 
 
     Adding external electric field

     Computed dipole along edir(3) : 
        Dipole               -1.0475 Ry au,         -2.6624 Debye
        Dipole field         -0.0020 Ry au, 
 
        Potential amp.        0.1832 Ry
        Total length         46.3494 bohr
 

     total cpu time spent up to now is     1053.5 secs

     total energy              =   -3374.62392642 Ry
     estimated scf accuracy    <       1.19692597 Ry

     total magnetization       =     0.32 Bohr mag/cell
     absolute magnetization    =     0.40 Bohr mag/cell

     iteration # 38     ecut=    36.75 Ry     beta= 0.05
     Davidson diagonalization with overlap
     ethr =  2.66E-04,  avg # of iterations =  1.0

     negative rho (up, down):  1.083E-02 1.154E-02
 
     Adding external electric field

     Computed dipole along edir(3) : 
        Dipole               -1.2290 Ry au,         -3.1238 Debye
        Dipole field         -0.0023 Ry au, 
 
        Potential amp.        0.2150 Ry
        Total length         46.3494 bohr
 
 
     Adding external electric field

     Computed dipole along edir(3) : 
        Dipole               -1.2290 Ry au,         -3.1238 Debye
        Dipole field         -0.0023 Ry au, 
 
        Potential amp.        0.2150 Ry
        Total length         46.3494 bohr
 

     total cpu time spent up to now is     1110.7 secs

     total energy              =   -3374.61911710 Ry
     estimated scf accuracy    <       1.06359283 Ry

     total magnetization       =     0.42 Bohr mag/cell
     absolute magnetization    =     0.50 Bohr mag/cell

     iteration # 39     ecut=    36.75 Ry     beta= 0.05
     Davidson diagonalization with overlap
     ethr =  2.66E-04,  avg # of iterations =  1.0

     negative rho (up, down):  1.082E-02 1.165E-02
 
     Adding external electric field

     Computed dipole along edir(3) : 
        Dipole               -1.0979 Ry au,         -2.7907 Debye
        Dipole field         -0.0021 Ry au, 
 
        Potential amp.        0.1921 Ry
        Total length         46.3494 bohr
 
 
     Adding external electric field

     Computed dipole along edir(3) : 
        Dipole               -1.0979 Ry au,         -2.7907 Debye
        Dipole field         -0.0021 Ry au, 
 
        Potential amp.        0.1921 Ry
        Total length         46.3494 bohr
 

     total cpu time spent up to now is     1140.3 secs

     total energy              =   -3374.63023640 Ry
     estimated scf accuracy    <       0.83986964 Ry

     total magnetization       =     0.36 Bohr mag/cell
     absolute magnetization    =     0.48 Bohr mag/cell

     iteration # 40     ecut=    36.75 Ry     beta= 0.05
     Davidson diagonalization with overlap
     ethr =  2.12E-04,  avg # of iterations =  1.4

     negative rho (up, down):  1.089E-02 1.201E-02
 
     Adding external electric field

     Computed dipole along edir(3) : 
        Dipole               -0.9529 Ry au,         -2.4219 Debye
        Dipole field         -0.0018 Ry au, 
 
        Potential amp.        0.1667 Ry
        Total length         46.3494 bohr
 
 
     Adding external electric field

     Computed dipole along edir(3) : 
        Dipole               -0.9529 Ry au,         -2.4219 Debye
        Dipole field         -0.0018 Ry au, 
 
        Potential amp.        0.1667 Ry
        Total length         46.3494 bohr
 

     total cpu time spent up to now is     1159.2 secs

     total energy              =   -3374.61954283 Ry
     estimated scf accuracy    <       1.20778492 Ry

     total magnetization       =     0.52 Bohr mag/cell
     absolute magnetization    =     0.61 Bohr mag/cell

     iteration # 41     ecut=    36.75 Ry     beta= 0.05
     Davidson diagonalization with overlap
     ethr =  2.12E-04,  avg # of iterations =  5.2

     negative rho (up, down):  1.068E-02 1.102E-02
 
     Adding external electric field

     Computed dipole along edir(3) : 
        Dipole               -1.2714 Ry au,         -3.2315 Debye
        Dipole field         -0.0024 Ry au, 
 
        Potential amp.        0.2224 Ry
        Total length         46.3494 bohr
 
 
     Adding external electric field

     Computed dipole along edir(3) : 
        Dipole               -1.2714 Ry au,         -3.2315 Debye
        Dipole field         -0.0024 Ry au, 
 
        Potential amp.        0.2224 Ry
        Total length         46.3494 bohr
 

     total cpu time spent up to now is     1180.0 secs

     total energy              =   -3374.58824977 Ry
     estimated scf accuracy    <       1.91027175 Ry

     total magnetization       =     0.64 Bohr mag/cell
     absolute magnetization    =     0.80 Bohr mag/cell

     iteration # 42     ecut=    36.75 Ry     beta= 0.05
     Davidson diagonalization with overlap
     ethr =  2.12E-04,  avg # of iterations = 10.3

     negative rho (up, down):  1.072E-02 1.145E-02
 
     Adding external electric field

     Computed dipole along edir(3) : 
        Dipole               -0.9520 Ry au,         -2.4198 Debye
        Dipole field         -0.0018 Ry au, 
 
        Potential amp.        0.1665 Ry
        Total length         46.3494 bohr
 
 
     Adding external electric field

     Computed dipole along edir(3) : 
        Dipole               -0.9520 Ry au,         -2.4198 Debye
        Dipole field         -0.0018 Ry au, 
 
        Potential amp.        0.1665 Ry
        Total length         46.3494 bohr
 

     total cpu time spent up to now is     1205.7 secs

     total energy              =   -3374.45448372 Ry
     estimated scf accuracy    <      22.02726871 Ry

     total magnetization       =    -0.05 Bohr mag/cell
     absolute magnetization    =     0.25 Bohr mag/cell

     iteration # 43     ecut=    36.75 Ry     beta= 0.05
     Davidson diagonalization with overlap
     ethr =  2.12E-04,  avg # of iterations =  1.8

     negative rho (up, down):  1.078E-02 1.120E-02
 
     Adding external electric field

     Computed dipole along edir(3) : 
        Dipole               -0.6111 Ry au,         -1.5533 Debye
        Dipole field         -0.0012 Ry au, 
 
        Potential amp.        0.1069 Ry
        Total length         46.3494 bohr
 
 
     Adding external electric field

     Computed dipole along edir(3) : 
        Dipole               -0.6111 Ry au,         -1.5533 Debye
        Dipole field         -0.0012 Ry au, 
 
        Potential amp.        0.1069 Ry
        Total length         46.3494 bohr
 

     total cpu time spent up to now is     1224.0 secs

     total energy              =   -3374.57173075 Ry
     estimated scf accuracy    <       0.38064754 Ry

     total magnetization       =     0.75 Bohr mag/cell
     absolute magnetization    =     0.88 Bohr mag/cell

     iteration # 44     ecut=    36.75 Ry     beta= 0.05
     Davidson diagonalization with overlap
     ethr =  9.59E-05,  avg # of iterations = 11.7

     negative rho (up, down):  1.077E-02 1.120E-02
 
     Adding external electric field

     Computed dipole along edir(3) : 
        Dipole               -0.6044 Ry au,         -1.5363 Debye
        Dipole field         -0.0011 Ry au, 
 
        Potential amp.        0.1057 Ry
        Total length         46.3494 bohr
 
 
     Adding external electric field

     Computed dipole along edir(3) : 
        Dipole               -0.6044 Ry au,         -1.5363 Debye
        Dipole field         -0.0011 Ry au, 
 
        Potential amp.        0.1057 Ry
        Total length         46.3494 bohr
 

     total cpu time spent up to now is     1249.9 secs

     total energy              =   -3374.71415933 Ry
     estimated scf accuracy    <       5.38141843 Ry

     total magnetization       =     0.06 Bohr mag/cell
     absolute magnetization    =     0.22 Bohr mag/cell

     iteration # 45     ecut=    36.75 Ry     beta= 0.05
     Davidson diagonalization with overlap
     ethr =  9.59E-05,  avg # of iterations =  1.5

     negative rho (up, down):  1.057E-02 1.090E-02
 
     Adding external electric field

     Computed dipole along edir(3) : 
        Dipole               -0.5685 Ry au,         -1.4449 Debye
        Dipole field         -0.0011 Ry au, 
 
        Potential amp.        0.0994 Ry
        Total length         46.3494 bohr
 
 
     Adding external electric field

     Computed dipole along edir(3) : 
        Dipole               -0.5685 Ry au,         -1.4449 Debye
        Dipole field         -0.0011 Ry au, 
 
        Potential amp.        0.0994 Ry
        Total length         46.3494 bohr
 

     total cpu time spent up to now is     1270.9 secs

     total energy              =   -3374.60709675 Ry
     estimated scf accuracy    <       5.73897824 Ry

     total magnetization       =     0.04 Bohr mag/cell
     absolute magnetization    =     0.22 Bohr mag/cell

     iteration # 46     ecut=    36.75 Ry     beta= 0.05
     Davidson diagonalization with overlap
     ethr =  9.59E-05,  avg # of iterations =  7.2

     negative rho (up, down):  1.055E-02 1.090E-02
 
     Adding external electric field

     Computed dipole along edir(3) : 
        Dipole               -0.5352 Ry au,         -1.3602 Debye
        Dipole field         -0.0010 Ry au, 
 
        Potential amp.        0.0936 Ry
        Total length         46.3494 bohr
 
 
     Adding external electric field

     Computed dipole along edir(3) : 
        Dipole               -0.5352 Ry au,         -1.3602 Debye
        Dipole field         -0.0010 Ry au, 
 
        Potential amp.        0.0936 Ry
        Total length         46.3494 bohr
 

     total cpu time spent up to now is     1292.9 secs

     total energy              =   -3374.58233833 Ry
     estimated scf accuracy    <       5.26051599 Ry

     total magnetization       =     0.21 Bohr mag/cell
     absolute magnetization    =     0.36 Bohr mag/cell

     iteration # 47     ecut=    36.75 Ry     beta= 0.05
     Davidson diagonalization with overlap
     ethr =  9.59E-05,  avg # of iterations =  4.9

     negative rho (up, down):  1.055E-02 1.090E-02
 
     Adding external electric field

     Computed dipole along edir(3) : 
        Dipole               -0.6158 Ry au,         -1.5653 Debye
        Dipole field         -0.0012 Ry au, 
 
        Potential amp.        0.1077 Ry
        Total length         46.3494 bohr
 
 
     Adding external electric field

     Computed dipole along edir(3) : 
        Dipole               -0.6158 Ry au,         -1.5653 Debye
        Dipole field         -0.0012 Ry au, 
 
        Potential amp.        0.1077 Ry
        Total length         46.3494 bohr
 

     total cpu time spent up to now is     1313.1 secs

     total energy              =   -3374.59611727 Ry
     estimated scf accuracy    <       0.44066084 Ry

     total magnetization       =    -0.02 Bohr mag/cell
     absolute magnetization    =     0.59 Bohr mag/cell

     iteration # 48     ecut=    36.75 Ry     beta= 0.05
     Davidson diagonalization with overlap
     ethr =  9.59E-05,  avg # of iterations =  2.1

     negative rho (up, down):  1.056E-02 1.092E-02
 
     Adding external electric field

     Computed dipole along edir(3) : 
        Dipole               -0.7139 Ry au,         -1.8145 Debye
        Dipole field         -0.0013 Ry au, 
 
        Potential amp.        0.1249 Ry
        Total length         46.3494 bohr
 
 
     Adding external electric field

     Computed dipole along edir(3) : 
        Dipole               -0.7139 Ry au,         -1.8145 Debye
        Dipole field         -0.0013 Ry au, 
 
        Potential amp.        0.1249 Ry
        Total length         46.3494 bohr
 

     total cpu time spent up to now is     1330.8 secs

     total energy              =   -3374.59535894 Ry
     estimated scf accuracy    <       0.15959289 Ry

     total magnetization       =    -0.30 Bohr mag/cell
     absolute magnetization    =     0.70 Bohr mag/cell

     iteration # 49     ecut=    36.75 Ry     beta= 0.05
     Davidson diagonalization with overlap
     ethr =  4.02E-05,  avg # of iterations =  3.2

     negative rho (up, down):  1.057E-02 1.096E-02
 
     Adding external electric field

     Computed dipole along edir(3) : 
        Dipole               -0.7537 Ry au,         -1.9157 Debye
        Dipole field         -0.0014 Ry au, 
 
        Potential amp.        0.1318 Ry
        Total length         46.3494 bohr
 
 
     Adding external electric field

     Computed dipole along edir(3) : 
        Dipole               -0.7537 Ry au,         -1.9157 Debye
        Dipole field         -0.0014 Ry au, 
 
        Potential amp.        0.1318 Ry
        Total length         46.3494 bohr
 

     total cpu time spent up to now is     1351.8 secs

     total energy              =   -3374.59937170 Ry
     estimated scf accuracy    <       0.60692735 Ry

     total magnetization       =    -0.15 Bohr mag/cell
     absolute magnetization    =     0.80 Bohr mag/cell

     iteration # 50     ecut=    36.75 Ry     beta= 0.05
     Davidson diagonalization with overlap
     ethr =  4.02E-05,  avg # of iterations =  1.2

     negative rho (up, down):  1.057E-02 1.102E-02
 
     Adding external electric field

     Computed dipole along edir(3) : 
        Dipole               -0.7676 Ry au,         -1.9511 Debye
        Dipole field         -0.0014 Ry au, 
 
        Potential amp.        0.1343 Ry
        Total length         46.3494 bohr
 
 
     Adding external electric field

     Computed dipole along edir(3) : 
        Dipole               -0.7676 Ry au,         -1.9511 Debye
        Dipole field         -0.0014 Ry au, 
 
        Potential amp.        0.1343 Ry
        Total length         46.3494 bohr
 

     total cpu time spent up to now is     1369.3 secs

     total energy              =   -3374.59557225 Ry
     estimated scf accuracy    <       0.75298439 Ry

     total magnetization       =    -0.04 Bohr mag/cell
     absolute magnetization    =     0.83 Bohr mag/cell

     iteration # 51     ecut=    36.75 Ry     beta= 0.05
     Davidson diagonalization with overlap
     ethr =  4.02E-05,  avg # of iterations =  2.2

     negative rho (up, down):  1.055E-02 1.094E-02
 
     Adding external electric field

     Computed dipole along edir(3) : 
        Dipole               -0.7269 Ry au,         -1.8477 Debye
        Dipole field         -0.0014 Ry au, 
 
        Potential amp.        0.1272 Ry
        Total length         46.3494 bohr
 
 
     Adding external electric field

     Computed dipole along edir(3) : 
        Dipole               -0.7269 Ry au,         -1.8477 Debye
        Dipole field         -0.0014 Ry au, 
 
        Potential amp.        0.1272 Ry
        Total length         46.3494 bohr
 

     total cpu time spent up to now is     1387.4 secs

     total energy              =   -3374.59624447 Ry
     estimated scf accuracy    <       0.10881217 Ry

     total magnetization       =    -0.24 Bohr mag/cell
     absolute magnetization    =     0.89 Bohr mag/cell

     iteration # 52     ecut=    36.75 Ry     beta= 0.05
     Davidson diagonalization with overlap
     ethr =  2.74E-05,  avg # of iterations =  4.8

     negative rho (up, down):  1.044E-02 1.074E-02
 
     Adding external electric field

     Computed dipole along edir(3) : 
        Dipole               -0.4402 Ry au,         -1.1188 Debye
        Dipole field         -0.0008 Ry au, 
 
        Potential amp.        0.0770 Ry
        Total length         46.3494 bohr
 
 
     Adding external electric field

     Computed dipole along edir(3) : 
        Dipole               -0.4402 Ry au,         -1.1188 Debye
        Dipole field         -0.0008 Ry au, 
 
        Potential amp.        0.0770 Ry
        Total length         46.3494 bohr
 

     total cpu time spent up to now is     1408.0 secs

     total energy              =   -3374.60012787 Ry
     estimated scf accuracy    <       0.06070232 Ry

     total magnetization       =    -0.51 Bohr mag/cell
     absolute magnetization    =     1.09 Bohr mag/cell

     iteration # 53     ecut=    36.75 Ry     beta= 0.05
     Davidson diagonalization with overlap
     c_bands:  3 eigenvalues not converged
     ethr =  1.53E-05,  avg # of iterations =  9.3

     negative rho (up, down):  1.043E-02 1.075E-02
 
     Adding external electric field

     Computed dipole along edir(3) : 
        Dipole               -0.4082 Ry au,         -1.0374 Debye
        Dipole field         -0.0008 Ry au, 
 
        Potential amp.        0.0714 Ry
        Total length         46.3494 bohr
 
 
     Adding external electric field

     Computed dipole along edir(3) : 
        Dipole               -0.4082 Ry au,         -1.0374 Debye
        Dipole field         -0.0008 Ry au, 
 
        Potential amp.        0.0714 Ry
        Total length         46.3494 bohr
 

     total cpu time spent up to now is     1431.9 secs

     total energy              =   -3374.59964832 Ry
     estimated scf accuracy    <       0.48442216 Ry

     total magnetization       =    -0.88 Bohr mag/cell
     absolute magnetization    =     1.03 Bohr mag/cell

     iteration # 54     ecut=    36.75 Ry     beta= 0.05
     Davidson diagonalization with overlap
     c_bands:  5 eigenvalues not converged
     c_bands:  2 eigenvalues not converged
     ethr =  1.53E-05,  avg # of iterations =  7.4

     negative rho (up, down):  1.036E-02 1.058E-02
 
     Adding external electric field

     Computed dipole along edir(3) : 
        Dipole               -0.1524 Ry au,         -0.3873 Debye
        Dipole field         -0.0003 Ry au, 
 
        Potential amp.        0.0267 Ry
        Total length         46.3494 bohr
 
 
     Adding external electric field

     Computed dipole along edir(3) : 
        Dipole               -0.1524 Ry au,         -0.3873 Debye
        Dipole field         -0.0003 Ry au, 
 
        Potential amp.        0.0267 Ry
        Total length         46.3494 bohr
 

     total cpu time spent up to now is     1454.3 secs

     total energy              =   -3374.61126854 Ry
     estimated scf accuracy    <       0.09739043 Ry

     total magnetization       =    -0.23 Bohr mag/cell
     absolute magnetization    =     1.32 Bohr mag/cell

     iteration # 55     ecut=    36.75 Ry     beta= 0.05
     Davidson diagonalization with overlap
     ethr =  1.53E-05,  avg # of iterations =  2.9

     negative rho (up, down):  1.029E-02 1.041E-02
 
     Adding external electric field

     Computed dipole along edir(3) : 
        Dipole                0.0981 Ry au,          0.2493 Debye
        Dipole field          0.0002 Ry au, 
 
        Potential amp.       -0.0172 Ry
        Total length         46.3494 bohr
 
 
     Adding external electric field

     Computed dipole along edir(3) : 
        Dipole                0.0981 Ry au,          0.2493 Debye
        Dipole field          0.0002 Ry au, 
 
        Potential amp.       -0.0172 Ry
        Total length         46.3494 bohr
 

     total cpu time spent up to now is     1473.9 secs

     total energy              =   -3374.61987287 Ry
     estimated scf accuracy    <       0.08537974 Ry

     total magnetization       =    -0.15 Bohr mag/cell
     absolute magnetization    =     1.45 Bohr mag/cell

     iteration # 56     ecut=    36.75 Ry     beta= 0.05
     Davidson diagonalization with overlap
     c_bands:  5 eigenvalues not converged
     ethr =  1.53E-05,  avg # of iterations =  6.5

     negative rho (up, down):  1.026E-02 1.037E-02
 
     Adding external electric field

     Computed dipole along edir(3) : 
        Dipole                0.1471 Ry au,          0.3740 Debye
        Dipole field          0.0003 Ry au, 
 
        Potential amp.       -0.0257 Ry
        Total length         46.3494 bohr
 
 
     Adding external electric field

     Computed dipole along edir(3) : 
        Dipole                0.1471 Ry au,          0.3740 Debye
        Dipole field          0.0003 Ry au, 
 
        Potential amp.       -0.0257 Ry
        Total length         46.3494 bohr
 

     total cpu time spent up to now is     1504.1 secs

     total energy              =   -3374.62448589 Ry
     estimated scf accuracy    <       0.04840844 Ry

     total magnetization       =    -0.15 Bohr mag/cell
     absolute magnetization    =     1.53 Bohr mag/cell

     iteration # 57     ecut=    36.75 Ry     beta= 0.05
     Davidson diagonalization with overlap
     ethr =  1.22E-05,  avg # of iterations =  2.8

     negative rho (up, down):  1.022E-02 1.032E-02
 
     Adding external electric field

     Computed dipole along edir(3) : 
        Dipole                0.1866 Ry au,          0.4742 Debye
        Dipole field          0.0004 Ry au, 
 
        Potential amp.       -0.0326 Ry
        Total length         46.3494 bohr
 
 
     Adding external electric field

     Computed dipole along edir(3) : 
        Dipole                0.1866 Ry au,          0.4742 Debye
        Dipole field          0.0004 Ry au, 
 
        Potential amp.       -0.0326 Ry
        Total length         46.3494 bohr
 

     total cpu time spent up to now is     1523.5 secs

     total energy              =   -3374.62613035 Ry
     estimated scf accuracy    <       0.03687482 Ry

     total magnetization       =    -0.13 Bohr mag/cell
     absolute magnetization    =     1.58 Bohr mag/cell

     iteration # 58     ecut=    36.75 Ry     beta= 0.05
     Davidson diagonalization with overlap
     c_bands:  1 eigenvalues not converged
     ethr =  9.29E-06,  avg # of iterations =  6.5

     negative rho (up, down):  1.018E-02 1.027E-02
 
     Adding external electric field

     Computed dipole along edir(3) : 
        Dipole                0.2059 Ry au,          0.5234 Debye
        Dipole field          0.0004 Ry au, 
 
        Potential amp.       -0.0360 Ry
        Total length         46.3494 bohr
 
 
     Adding external electric field

     Computed dipole along edir(3) : 
        Dipole                0.2059 Ry au,          0.5234 Debye
        Dipole field          0.0004 Ry au, 
 
        Potential amp.       -0.0360 Ry
        Total length         46.3494 bohr
 

     total cpu time spent up to now is     1544.9 secs

     total energy              =   -3374.62838072 Ry
     estimated scf accuracy    <       0.01404442 Ry

     total magnetization       =    -0.17 Bohr mag/cell
     absolute magnetization    =     1.58 Bohr mag/cell

     iteration # 59     ecut=    36.75 Ry     beta= 0.05
     Davidson diagonalization with overlap
     c_bands:  2 eigenvalues not converged
     c_bands:  3 eigenvalues not converged
     c_bands:  3 eigenvalues not converged
     c_bands:  1 eigenvalues not converged
     c_bands:  2 eigenvalues not converged
     c_bands:  1 eigenvalues not converged
     c_bands:  2 eigenvalues not converged
     c_bands:  1 eigenvalues not converged
     c_bands:  1 eigenvalues not converged
     ethr =  3.54E-06,  avg # of iterations = 16.3

     negative rho (up, down):  1.018E-02 1.027E-02
 
     Adding external electric field

     Computed dipole along edir(3) : 
        Dipole                0.2180 Ry au,          0.5541 Debye
        Dipole field          0.0004 Ry au, 
 
        Potential amp.       -0.0381 Ry
        Total length         46.3494 bohr
 
 
     Adding external electric field

     Computed dipole along edir(3) : 
        Dipole                0.2180 Ry au,          0.5541 Debye
        Dipole field          0.0004 Ry au, 
 
        Potential amp.       -0.0381 Ry
        Total length         46.3494 bohr
 

     total cpu time spent up to now is     1575.2 secs

     total energy              =   -3374.62959906 Ry
     estimated scf accuracy    <       0.00524688 Ry

     total magnetization       =    -0.28 Bohr mag/cell
     absolute magnetization    =     1.55 Bohr mag/cell

     iteration # 60     ecut=    36.75 Ry     beta= 0.05
     Davidson diagonalization with overlap
     c_bands:  1 eigenvalues not converged
     c_bands:  2 eigenvalues not converged
     c_bands:  1 eigenvalues not converged
     c_bands:  1 eigenvalues not converged
     c_bands:  1 eigenvalues not converged
     ethr =  1.32E-06,  avg # of iterations = 11.4

     negative rho (up, down):  1.017E-02 1.025E-02
 
     Adding external electric field

     Computed dipole along edir(3) : 
        Dipole                0.2131 Ry au,          0.5417 Debye
        Dipole field          0.0004 Ry au, 
 
        Potential amp.       -0.0373 Ry
        Total length         46.3494 bohr
 
 
     Adding external electric field

     Computed dipole along edir(3) : 
        Dipole                0.2131 Ry au,          0.5417 Debye
        Dipole field          0.0004 Ry au, 
 
        Potential amp.       -0.0373 Ry
        Total length         46.3494 bohr
 

     total cpu time spent up to now is     1601.3 secs

     total energy              =   -3374.63116452 Ry
     estimated scf accuracy    <       0.00548434 Ry

     total magnetization       =    -0.17 Bohr mag/cell
     absolute magnetization    =     1.63 Bohr mag/cell

     iteration # 61     ecut=    36.75 Ry     beta= 0.05
     Davidson diagonalization with overlap
     c_bands:  1 eigenvalues not converged
     c_bands:  3 eigenvalues not converged
     c_bands:  1 eigenvalues not converged
     ethr =  1.32E-06,  avg # of iterations =  9.1

     negative rho (up, down):  1.031E-02 1.037E-02
 
     Adding external electric field

     Computed dipole along edir(3) : 
        Dipole                0.2592 Ry au,          0.6588 Debye
        Dipole field          0.0005 Ry au, 
 
        Potential amp.       -0.0453 Ry
        Total length         46.3494 bohr
 
 
     Adding external electric field

     Computed dipole along edir(3) : 
        Dipole                0.2592 Ry au,          0.6588 Debye
        Dipole field          0.0005 Ry au, 
 
        Potential amp.       -0.0453 Ry
        Total length         46.3494 bohr
 

     total cpu time spent up to now is     1624.4 secs

     total energy              =   -3374.63272809 Ry
     estimated scf accuracy    <       0.00444038 Ry

     total magnetization       =    -0.16 Bohr mag/cell
     absolute magnetization    =     1.67 Bohr mag/cell

     iteration # 62     ecut=    36.75 Ry     beta= 0.05
     Davidson diagonalization with overlap
     c_bands:  1 eigenvalues not converged
     ethr =  1.12E-06,  avg # of iterations =  7.0

     negative rho (up, down):  1.047E-02 1.053E-02
 
     Adding external electric field

     Computed dipole along edir(3) : 
        Dipole                0.2828 Ry au,          0.7187 Debye
        Dipole field          0.0005 Ry au, 
 
        Potential amp.       -0.0495 Ry
        Total length         46.3494 bohr
 
 
     Adding external electric field

     Computed dipole along edir(3) : 
        Dipole                0.2828 Ry au,          0.7187 Debye
        Dipole field          0.0005 Ry au, 
 
        Potential amp.       -0.0495 Ry
        Total length         46.3494 bohr
 

     total cpu time spent up to now is     1648.1 secs

     total energy              =   -3374.63378018 Ry
     estimated scf accuracy    <       0.00352142 Ry

     total magnetization       =    -0.14 Bohr mag/cell
     absolute magnetization    =     1.70 Bohr mag/cell

     iteration # 63     ecut=    36.75 Ry     beta= 0.05
     Davidson diagonalization with overlap
     c_bands:  1 eigenvalues not converged
     ethr =  8.87E-07,  avg # of iterations =  8.0

[...]
     Davidson diagonalization with overlap
     c_bands:  1 eigenvalues not converged
     c_bands:  1 eigenvalues not converged
     c_bands:  2 eigenvalues not converged
     c_bands:  1 eigenvalues not converged
     ethr =  3.81E-11,  avg # of iterations = 14.8

     negative rho (up, down):  1.037E-02 1.070E-02
 
     Adding external electric field

     Computed dipole along edir(3) : 
        Dipole                0.2027 Ry au,          0.5151 Debye
        Dipole field          0.0004 Ry au, 
 
        Potential amp.       -0.0355 Ry
        Total length         46.3494 bohr
 
 
     Adding external electric field

     Computed dipole along edir(3) : 
        Dipole                0.2027 Ry au,          0.5151 Debye
        Dipole field          0.0004 Ry au, 
 
        Potential amp.       -0.0355 Ry
        Total length         46.3494 bohr
 

     total cpu time spent up to now is    40902.7 secs

     total energy              =   -3375.52687120 Ry
     estimated scf accuracy    <       0.00000389 Ry

     total magnetization       =     0.17 Bohr mag/cell
     absolute magnetization    =     1.55 Bohr mag/cell

     iteration #574     ecut=    36.75 Ry     beta= 0.05
     Davidson diagonalization with overlap
     c_bands:  1 eigenvalues not converged
     c_bands:  1 eigenvalues not converged
     ethr =  3.81E-11,  avg # of iterations = 12.7

     negative rho (up, down):  1.037E-02 1.070E-02
 
     Adding external electric field

     Computed dipole along edir(3) : 
        Dipole                0.2026 Ry au,          0.5151 Debye
        Dipole field          0.0004 Ry au, 
 
        Potential amp.       -0.0354 Ry
        Total length         46.3494 bohr
 
 
     Adding external electric field

     Computed dipole along edir(3) : 
        Dipole                0.2026 Ry au,          0.5151 Debye
        Dipole field          0.0004 Ry au, 
 
        Potential amp.       -0.0354 Ry
        Total length         46.3494 bohr
 

     total cpu time spent up to now is    40948.4 secs

     total energy              =   -3375.52687887 Ry
     estimated scf accuracy    <       0.00000907 Ry

     total magnetization       =     0.19 Bohr mag/cell
     absolute magnetization    =     1.58 Bohr mag/cell

     iteration #575     ecut=    36.75 Ry     beta= 0.05
     Davidson diagonalization with overlap
     ethr =  3.81E-11,  avg # of iterations =  6.4

     negative rho (up, down):  1.038E-02 1.069E-02
 
     Adding external electric field

     Computed dipole along edir(3) : 
        Dipole                0.2027 Ry au,          0.5153 Debye
        Dipole field          0.0004 Ry au, 
 
        Potential amp.       -0.0355 Ry
        Total length         46.3494 bohr
 
 
     Adding external electric field

     Computed dipole along edir(3) : 
        Dipole                0.2027 Ry au,          0.5153 Debye
        Dipole field          0.0004 Ry au, 
 
        Potential amp.       -0.0355 Ry
        Total length         46.3494 bohr
 

     total cpu time spent up to now is    40975.3 secs

     total energy              =   -3375.52687912 Ry
     estimated scf accuracy    <       0.00000525 Ry

     total magnetization       =     0.18 Bohr mag/cell
     absolute magnetization    =     1.58 Bohr mag/cell

     iteration #576     ecut=    36.75 Ry     beta= 0.05
     Davidson diagonalization with overlap
     ethr =  3.81E-11,  avg # of iterations =  9.8

     negative rho (up, down):  1.039E-02 1.068E-02
 
     Adding external electric field

     Computed dipole along edir(3) : 
        Dipole                0.2028 Ry au,          0.5154 Debye
        Dipole field          0.0004 Ry au, 
 
        Potential amp.       -0.0355 Ry
        Total length         46.3494 bohr
 
 
     Adding external electric field

     Computed dipole along edir(3) : 
        Dipole                0.2028 Ry au,          0.5154 Debye
        Dipole field          0.0004 Ry au, 
 
        Potential amp.       -0.0355 Ry
        Total length         46.3494 bohr
 

     total cpu time spent up to now is    41025.7 secs

     total energy              =   -3375.52688122 Ry
     estimated scf accuracy    <       0.00000327 Ry

     total magnetization       =     0.17 Bohr mag/cell
     absolute magnetization    =     1.56 Bohr mag/cell

     iteration #577     ecut=    36.75 Ry     beta= 0.05
     Davidson diagonalization with overlap
     ethr =  3.81E-11,  avg # of iterations =  9.4

     negative rho (up, down):  1.041E-02 1.065E-02
 
     Adding external electric field

     Computed dipole along edir(3) : 
        Dipole                0.2030 Ry au,          0.5161 Debye
        Dipole field          0.0004 Ry au, 
 
        Potential amp.       -0.0355 Ry
        Total length         46.3494 bohr
 
 
     Adding external electric field

     Computed dipole along edir(3) : 
        Dipole                0.2030 Ry au,          0.5161 Debye
        Dipole field          0.0004 Ry au, 
 
        Potential amp.       -0.0355 Ry
        Total length         46.3494 bohr
 

     total cpu time spent up to now is    41066.3 secs

     total energy              =   -3375.52686922 Ry
     estimated scf accuracy    <       0.00000297 Ry

     total magnetization       =     0.17 Bohr mag/cell
     absolute magnetization    =     1.55 Bohr mag/cell

     iteration #578     ecut=    36.75 Ry     beta= 0.05
     Davidson diagonalization with overlap
     c_bands:  1 eigenvalues not converged
     c_bands:  1 eigenvalues not converged
     c_bands:  1 eigenvalues not converged
     c_bands:  1 eigenvalues not converged
     ethr =  3.81E-11,  avg # of iterations = 13.8

     negative rho (up, down):  1.042E-02 1.064E-02
 
     Adding external electric field

     Computed dipole along edir(3) : 
        Dipole                0.2031 Ry au,          0.5162 Debye
        Dipole field          0.0004 Ry au, 
 
        Potential amp.       -0.0355 Ry
        Total length         46.3494 bohr
 
 
     Adding external electric field

     Computed dipole along edir(3) : 
        Dipole                0.2031 Ry au,          0.5162 Debye
        Dipole field          0.0004 Ry au, 
 
        Potential amp.       -0.0355 Ry
        Total length         46.3494 bohr
 

     total cpu time spent up to now is    41119.1 secs

     total energy              =   -3375.52688990 Ry
     estimated scf accuracy    <       0.00000394 Ry

     total magnetization       =     0.13 Bohr mag/cell
     absolute magnetization    =     1.50 Bohr mag/cell

     iteration #579     ecut=    36.75 Ry     beta= 0.05
     Davidson diagonalization with overlap
     ethr =  3.81E-11,  avg # of iterations =  9.9

     negative rho (up, down):  1.038E-02 1.068E-02
 
     Adding external electric field

     Computed dipole along edir(3) : 
        Dipole                0.2028 Ry au,          0.5154 Debye
        Dipole field          0.0004 Ry au, 
 
        Potential amp.       -0.0355 Ry
        Total length         46.3494 bohr
 
 
     Adding external electric field

     Computed dipole along edir(3) : 
        Dipole                0.2028 Ry au,          0.5154 Debye
        Dipole field          0.0004 Ry au, 
 
        Potential amp.       -0.0355 Ry
        Total length         46.3494 bohr
 

     total cpu time spent up to now is    41156.8 secs

     total energy              =   -3375.52683782 Ry
     estimated scf accuracy    <       0.00000238 Ry

     total magnetization       =     0.11 Bohr mag/cell
     absolute magnetization    =     1.48 Bohr mag/cell

     iteration #580     ecut=    36.75 Ry     beta= 0.05
     Davidson diagonalization with overlap
     c_bands:  1 eigenvalues not converged
     c_bands:  1 eigenvalues not converged
     c_bands:  2 eigenvalues not converged
     c_bands:  1 eigenvalues not converged
     ethr =  3.81E-11,  avg # of iterations = 14.9

     negative rho (up, down):  1.042E-02 1.065E-02
 
     Adding external electric field

     Computed dipole along edir(3) : 
        Dipole                0.2031 Ry au,          0.5161 Debye
        Dipole field          0.0004 Ry au, 
 
        Potential amp.       -0.0355 Ry
        Total length         46.3494 bohr
 
 
     Adding external electric field

     Computed dipole along edir(3) : 
        Dipole                0.2031 Ry au,          0.5161 Debye
        Dipole field          0.0004 Ry au, 
 
        Potential amp.       -0.0355 Ry
        Total length         46.3494 bohr
 

     total cpu time spent up to now is    41235.5 secs

     total energy              =   -3375.52686244 Ry
     estimated scf accuracy    <       0.00000357 Ry

     total magnetization       =     0.17 Bohr mag/cell
     absolute magnetization    =     1.56 Bohr mag/cell

     iteration #581     ecut=    36.75 Ry     beta= 0.05
     Davidson diagonalization with overlap
     c_bands:  1 eigenvalues not converged
     c_bands:  1 eigenvalues not converged
     c_bands:  1 eigenvalues not converged
     c_bands:  1 eigenvalues not converged
     ethr =  3.81E-11,  avg # of iterations = 14.6

     negative rho (up, down):  1.041E-02 1.066E-02
 
     Adding external electric field

     Computed dipole along edir(3) : 
        Dipole                0.2029 Ry au,          0.5158 Debye
        Dipole field          0.0004 Ry au, 
 
        Potential amp.       -0.0355 Ry
        Total length         46.3494 bohr
 
 
     Adding external electric field

     Computed dipole along edir(3) : 
        Dipole                0.2029 Ry au,          0.5158 Debye
        Dipole field          0.0004 Ry au, 
 
        Potential amp.       -0.0355 Ry
        Total length         46.3494 bohr
 

     total cpu time spent up to now is    41290.6 secs

     total energy              =   -3375.52688444 Ry
     estimated scf accuracy    <       0.00000350 Ry

     total magnetization       =     0.12 Bohr mag/cell
     absolute magnetization    =     1.49 Bohr mag/cell

     iteration #582     ecut=    36.75 Ry     beta= 0.05
     Davidson diagonalization with overlap
     ethr =  3.81E-11,  avg # of iterations =  8.8

     negative rho (up, down):  1.039E-02 1.068E-02
 
     Adding external electric field

     Computed dipole along edir(3) : 
        Dipole                0.2028 Ry au,          0.5155 Debye
        Dipole field          0.0004 Ry au, 
 
        Potential amp.       -0.0355 Ry
        Total length         46.3494 bohr
 
 
     Adding external electric field

     Computed dipole along edir(3) : 
        Dipole                0.2028 Ry au,          0.5155 Debye
        Dipole field          0.0004 Ry au, 
 
        Potential amp.       -0.0355 Ry
        Total length         46.3494 bohr
 

     total cpu time spent up to now is    41328.0 secs

     total energy              =   -3375.52687183 Ry
     estimated scf accuracy    <       0.00000353 Ry

     total magnetization       =     0.14 Bohr mag/cell
     absolute magnetization    =     1.51 Bohr mag/cell

     iteration #583     ecut=    36.75 Ry     beta= 0.05
     Davidson diagonalization with overlap
     c_bands:  1 eigenvalues not converged
     c_bands:  1 eigenvalues not converged
     ethr =  3.81E-11,  avg # of iterations = 12.8

     negative rho (up, down):  1.039E-02 1.068E-02
 
     Adding external electric field

     Computed dipole along edir(3) : 
        Dipole                0.2029 Ry au,          0.5156 Debye
        Dipole field          0.0004 Ry au, 
 
        Potential amp.       -0.0355 Ry
        Total length         46.3494 bohr
 
 
     Adding external electric field

     Computed dipole along edir(3) : 
        Dipole                0.2029 Ry au,          0.5156 Debye
        Dipole field          0.0004 Ry au, 
 
        Potential amp.       -0.0355 Ry
        Total length         46.3494 bohr
 

     total cpu time spent up to now is    41386.5 secs

     total energy              =   -3375.52688225 Ry
     estimated scf accuracy    <       0.00000398 Ry

     total magnetization       =     0.16 Bohr mag/cell
     absolute magnetization    =     1.55 Bohr mag/cell

     iteration #584     ecut=    36.75 Ry     beta= 0.05
     Davidson diagonalization with overlap
     ethr =  3.81E-11,  avg # of iterations =  3.6

     negative rho (up, down):  1.035E-02 1.071E-02
 
     Adding external electric field

     Computed dipole along edir(3) : 
        Dipole                0.2026 Ry au,          0.5150 Debye
        Dipole field          0.0004 Ry au, 
 
        Potential amp.       -0.0354 Ry
        Total length         46.3494 bohr
 
 
     Adding external electric field

     Computed dipole along edir(3) : 
        Dipole                0.2026 Ry au,          0.5150 Debye
        Dipole field          0.0004 Ry au, 
 
        Potential amp.       -0.0354 Ry
        Total length         46.3494 bohr
 

     total cpu time spent up to now is    41407.0 secs

     total energy              =   -3375.52685296 Ry
     estimated scf accuracy    <       0.00000535 Ry

     total magnetization       =     0.16 Bohr mag/cell
     absolute magnetization    =     1.55 Bohr mag/cell

     iteration #585     ecut=    36.75 Ry     beta= 0.05
     Davidson diagonalization with overlap
     c_bands:  1 eigenvalues not converged
     c_bands:  1 eigenvalues not converged
     c_bands:  1 eigenvalues not converged
     c_bands:  1 eigenvalues not converged
     ethr =  3.81E-11,  avg # of iterations = 15.1

     negative rho (up, down):  1.039E-02 1.067E-02
 
     Adding external electric field

     Computed dipole along edir(3) : 
        Dipole                0.2029 Ry au,          0.5157 Debye
        Dipole field          0.0004 Ry au, 
 
        Potential amp.       -0.0355 Ry
        Total length         46.3494 bohr
 
 
     Adding external electric field

     Computed dipole along edir(3) : 
        Dipole                0.2029 Ry au,          0.5157 Debye
        Dipole field          0.0004 Ry au, 
 
        Potential amp.       -0.0355 Ry
        Total length         46.3494 bohr
 

     total cpu time spent up to now is    41465.5 secs

     total energy              =   -3375.52685473 Ry
     estimated scf accuracy    <       0.00002412 Ry

     total magnetization       =     0.19 Bohr mag/cell
     absolute magnetization    =     1.60 Bohr mag/cell

     iteration #586     ecut=    36.75 Ry     beta= 0.05
     Davidson diagonalization with overlap
     c_bands:  1 eigenvalues not converged
     c_bands:  1 eigenvalues not converged
     c_bands:  1 eigenvalues not converged
     c_bands:  1 eigenvalues not converged
     ethr =  3.81E-11,  avg # of iterations = 14.7

     negative rho (up, down):  1.039E-02 1.067E-02
 
     Adding external electric field

     Computed dipole along edir(3) : 
        Dipole                0.2029 Ry au,          0.5157 Debye
        Dipole field          0.0004 Ry au, 
 
        Potential amp.       -0.0355 Ry
        Total length         46.3494 bohr
 
 
     Adding external electric field

     Computed dipole along edir(3) : 
        Dipole                0.2029 Ry au,          0.5157 Debye
        Dipole field          0.0004 Ry au, 
 
        Potential amp.       -0.0355 Ry
        Total length         46.3494 bohr
 

     total cpu time spent up to now is    41525.7 secs

     total energy              =   -3375.52688352 Ry
     estimated scf accuracy    <       0.00000508 Ry

     total magnetization       =     0.15 Bohr mag/cell
     absolute magnetization    =     1.54 Bohr mag/cell

     iteration #587     ecut=    36.75 Ry     beta= 0.05
     Davidson diagonalization with overlap
     ethr =  3.81E-11,  avg # of iterations =  1.6

     negative rho (up, down):  1.039E-02 1.067E-02
 
     Adding external electric field

     Computed dipole along edir(3) : 
        Dipole                0.2029 Ry au,          0.5156 Debye
        Dipole field          0.0004 Ry au, 
 
        Potential amp.       -0.0355 Ry
        Total length         46.3494 bohr
 
 
     Adding external electric field

     Computed dipole along edir(3) : 
        Dipole                0.2029 Ry au,          0.5156 Debye
        Dipole field          0.0004 Ry au, 
 
        Potential amp.       -0.0355 Ry
        Total length         46.3494 bohr
 

     total cpu time spent up to now is    41545.9 secs

     total energy              =   -3375.52688319 Ry
     estimated scf accuracy    <       0.00000508 Ry

     total magnetization       =     0.15 Bohr mag/cell
     absolute magnetization    =     1.54 Bohr mag/cell

     iteration #588     ecut=    36.75 Ry     beta= 0.05
     Davidson diagonalization with overlap
     ethr =  3.81E-11,  avg # of iterations =  4.5

     negative rho (up, down):  1.042E-02 1.065E-02
 
     Adding external electric field

     Computed dipole along edir(3) : 
        Dipole                0.2031 Ry au,          0.5161 Debye
        Dipole field          0.0004 Ry au, 
 
        Potential amp.       -0.0355 Ry
        Total length         46.3494 bohr
 
 
     Adding external electric field

     Computed dipole along edir(3) : 
        Dipole                0.2031 Ry au,          0.5161 Debye
        Dipole field          0.0004 Ry au, 
 
        Potential amp.       -0.0355 Ry
        Total length         46.3494 bohr
 

     total cpu time spent up to now is    41568.8 secs

     total energy              =   -3375.52687291 Ry
     estimated scf accuracy    <       0.00000487 Ry

     total magnetization       =     0.16 Bohr mag/cell
     absolute magnetization    =     1.54 Bohr mag/cell

     iteration #589     ecut=    36.75 Ry     beta= 0.05
     Davidson diagonalization with overlap
     c_bands:  1 eigenvalues not converged
     c_bands:  1 eigenvalues not converged
     c_bands:  1 eigenvalues not converged
     ethr =  3.81E-11,  avg # of iterations = 14.2

     negative rho (up, down):  1.040E-02 1.067E-02
 
     Adding external electric field

     Computed dipole along edir(3) : 
        Dipole                0.2029 Ry au,          0.5158 Debye
        Dipole field          0.0004 Ry au, 
 
        Potential amp.       -0.0355 Ry
        Total length         46.3494 bohr
 
 
     Adding external electric field

     Computed dipole along edir(3) : 
        Dipole                0.2029 Ry au,          0.5158 Debye
        Dipole field          0.0004 Ry au, 
 
        Potential amp.       -0.0355 Ry
        Total length         46.3494 bohr
 

     total cpu time spent up to now is    41624.8 secs

     total energy              =   -3375.52687435 Ry
     estimated scf accuracy    <       0.00000292 Ry

     total magnetization       =     0.12 Bohr mag/cell
     absolute magnetization    =     1.49 Bohr mag/cell

     iteration #590     ecut=    36.75 Ry     beta= 0.05
     Davidson diagonalization with overlap
     c_bands:  1 eigenvalues not converged
     c_bands:  1 eigenvalues not converged
     ethr =  3.81E-11,  avg # of iterations = 12.3

     negative rho (up, down):  1.041E-02 1.066E-02
 
     Adding external electric field

     Computed dipole along edir(3) : 
        Dipole                0.2030 Ry au,          0.5160 Debye
        Dipole field          0.0004 Ry au, 
 
        Potential amp.       -0.0355 Ry
        Total length         46.3494 bohr
 
 
     Adding external electric field

     Computed dipole along edir(3) : 
        Dipole                0.2030 Ry au,          0.5160 Debye
        Dipole field          0.0004 Ry au, 
 
        Potential amp.       -0.0355 Ry
        Total length         46.3494 bohr
 

     total cpu time spent up to now is    41670.1 secs

     total energy              =   -3375.52688490 Ry
     estimated scf accuracy    <       0.00000637 Ry

     total magnetization       =     0.15 Bohr mag/cell
     absolute magnetization    =     1.52 Bohr mag/cell

     iteration #591     ecut=    36.75 Ry     beta= 0.05
     Davidson diagonalization with overlap
