
     Program PWSCF v.6.7GPU starts on 21Feb2022 at 12:10:17 

     This program is part of the open-source Quantum ESPRESSO suite
     for quantum simulation of materials; please cite
         "P. Giannozzi et al., J. Phys.:Condens. Matter 21 395502 (2009);
         "P. Giannozzi et al., J. Phys.:Condens. Matter 29 465901 (2017);
         "P. Giannozzi et al., J. Chem. Phys. 152 154105 (2020);
          URL http://www.quantum-espresso.org", 
     in publications or presentations arising from this work. More details at
     http://www.quantum-espresso.org/quote

     Parallel version (MPI), running on    16 processors

     MPI processes distributed on     1 nodes
     R & G space division:  proc/nbgrp/npool/nimage =      16
     Reading input from /storage/home/hcoda1/3/rxie43/pBlock/N/O/qe_4011303.sched-torque.pace.gatech.edu/pw.inp
Warning: card &CELL ignored
Warning: card   CELL_DYNAMICS='IPI', ignored
Warning: card / ignored

     Current dimensions of program PWSCF are:
     Max number of different atomic species (ntypx) = 10
     Max number of k-points (npk) =  40000
     Max angular momentum in pseudopotentials (lmaxx) =  3
     Message from routine cell_base_init:
     DEPRECATED: use true lattice parameter, not A to a.u. conversion factor
     file O.UPF: wavefunction(s)  2P renormalized

     **************************************************************************
     Initializing libbeef V0.1.2 with the BEEF-vdW functional.
     Citation: Wellendorff et al., PRB 85, 235149 (2012).
     **************************************************************************


     IMPORTANT: XC functional enforced from input :
     Exchange-correlation= BEEF-VDW
                           (   1   4  43  14   2   0   0)
     Any further DFT definition will be discarded
     Please, verify this is what you really want


     Subspace diagonalization in iterative solution of the eigenvalue problem:
     one sub-group per band group will be used
     scalapack distributed-memory algorithm (size of sub-group:  4*  4 procs)

  @ DRIVER MODE: Connecting to 
 qe_1130903_4011303.sched-torque.pace.gatech.edu_zg81k3u_scratch
  using UNIX socket
  @ DRIVER MODE: Message from server: STATUS
  @ DRIVER MODE: Message from server: INIT
  @ DRIVER MODE: Receiving replica           0          -1
  @ DRIVER MODE: Receiving encoded integer          25
  @ DRIVER MODE:  SCF:  T  FORCE:  T  STRESS:  F  VC:  F  ENSEMBLE:  F
  @ DRIVER MODE:  SCF:  T  FORCE:  T  STRESS:  F  VC:  F  ENSEMBLE:  F
 
     Parallelization info
     --------------------
     sticks:   dense  smooth     PW     G-vecs:    dense   smooth      PW
     Min         256     102     28                49498    12526    1868
     Max         257     103     29                49510    12535    1881
     Sum        4097    1637    459               792059   200495   30031
 
     Using Slab Decomposition
 


     bravais-lattice index     =            0
     lattice parameter (alat)  =       1.8897  a.u.
     unit-cell volume          =    6658.9804 (a.u.)^3
     number of atoms/cell      =           50
     number of atomic types    =            3
     number of electrons       =       395.00
     number of Kohn-Sham states=          207
     kinetic-energy cutoff     =      36.7493  Ry
     charge density cutoff     =     367.4932  Ry
     scf convergence threshold =      7.3E-08
     mixing beta               =       0.0500
     number of iterations used =            8  plain     mixing
     Exchange-correlation= BEEF-VDW
                           (   1   4  43  14   2   0   0)

     celldm(1)=   1.889726  celldm(2)=   0.000000  celldm(3)=   0.000000
     celldm(4)=   0.000000  celldm(5)=   0.000000  celldm(6)=   0.000000

     crystal axes: (cart. coord. in units of alat)
               a(1) = (   6.579727   0.000000   0.000000 )  
               a(2) = (  -0.000775   5.961596   0.000000 )  
               a(3) = (   0.000000   0.000000  25.155947 )  

     reciprocal axes: (cart. coord. in units 2 pi/alat)
               b(1) = (  0.151982  0.000020  0.000000 )  
               b(2) = (  0.000000  0.167740  0.000000 )  
               b(3) = (  0.000000  0.000000  0.039752 )  


     PseudoPot. # 1 for Ti read from file:
     /storage/coda1/p-amedford6/0/shared/rich_project_chbe-medford/medford-share/data/pseudos_module/espresso/esp_pseudos_old/Ti.UPF
     MD5 check sum: 88a00a6731bd790ddea75d31a80cb452
     Pseudo is Ultrasoft + core correction, Zval = 12.0
     Generated by new atomic code, or converted to UPF format
     Using radial grid of  851 points,  6 beta functions with: 
                l(1) =   0
                l(2) =   0
                l(3) =   1
                l(4) =   1
                l(5) =   2
                l(6) =   2
     Q(r) pseudized with  6 coefficients,  rinner =    1.000   1.000   1.000
                                                       1.000   1.000

     PseudoPot. # 2 for O  read from file:
     /storage/coda1/p-amedford6/0/shared/rich_project_chbe-medford/medford-share/data/pseudos_module/espresso/esp_pseudos_old/O.UPF
     MD5 check sum: 0234752ac141de4415c5fc33072bef88
     Pseudo is Projector augmented-wave + core cor, Zval =  6.0
     Generated using "atomic" code by A. Dal Corso  v.5.0.99 svn rev. 10869
     Shape of augmentation charge: BESSEL
     Using radial grid of 1095 points,  4 beta functions with: 
                l(1) =   0
                l(2) =   0
                l(3) =   1
                l(4) =   1
     Q(r) pseudized with 0 coefficients 


     PseudoPot. # 3 for N  read from file:
     /storage/coda1/p-amedford6/0/shared/rich_project_chbe-medford/medford-share/data/pseudos_module/espresso/esp_pseudos_old/N.UPF
     MD5 check sum: 16739722b17309cd8fe442a2ace49922
     Pseudo is Ultrasoft + core correction, Zval =  5.0
     Generated using "atomic" code by A. Dal Corso  v.5.1
     Using radial grid of 1085 points,  4 beta functions with: 
                l(1) =   0
                l(2) =   0
                l(3) =   1
                l(4) =   1
     Q(r) pseudized with 0 coefficients 


     atomic species   valence    mass     pseudopotential
        Ti1           12.00    47.86700     Ti( 1.00)
        O1             6.00    15.99900     O ( 1.00)
        N1             5.00    14.00700     N ( 1.00)

     Starting magnetic structure 
     atomic species   magnetization
        Ti1          0.000
        O1           0.000
        N1           0.000

     No symmetry found



   Cartesian axes

     site n.     atom                  positions (alat units)
         1           Ti1 tau(   1) = (   0.0004258   2.9801865   6.0000000  )
         2           Ti1 tau(   2) = (   3.2906075   1.4906267   6.0002472  )
         3           O1  tau(   3) = (   0.0006271   0.0005054   7.9858123  )
         4           O1  tau(   4) = (   3.2906025   0.0005020   7.3038282  )
         5           O1  tau(   5) = (   4.5942328   1.4918067   9.2879030  )
         6           O1  tau(   6) = (   1.9868534   1.4903216   9.2879459  )
         7           Ti1 tau(   7) = (   3.2905683   2.9818392   9.1597947  )
         8           Ti1 tau(   8) = (   0.0009689   1.5052867   9.3302970  )
         9           O1  tau(   9) = (   3.2905855   0.0002274  11.3449796  )
        10           O1  tau(  10) = (   0.0007044   0.0001637  10.5878211  )
        11           O1  tau(  11) = (   1.3086228   1.4960398  12.6352896  )
        12           O1  tau(  12) = (   5.2719811   1.4959133  12.6352857  )
        13           Ti1 tau(  13) = (   0.0003999   2.9799595  12.8381996  )
        14           Ti1 tau(  14) = (   3.2904892   1.4918554  12.4937079  )
        15           O1  tau(  15) = (  -0.0001510   5.9603110  14.6182052  )
        16           O1  tau(  16) = (   3.2904271   0.0012435  13.9552603  )
        17           O1  tau(  17) = (   4.5310694   1.5033324  16.1024834  )
        18           O1  tau(  18) = (   2.0493690   1.5032419  16.1024746  )
        19           Ti1 tau(  19) = (   3.2900460   2.9835970  15.7349926  )
        20           Ti1 tau(  20) = (   0.0002336   1.4811327  16.1608491  )
        21           O1  tau(  21) = (   3.2904802   0.0005063   4.7018136  )
        22           O1  tau(  22) = (   0.0005780   0.0055379  17.2302029  )
        23           O1  tau(  23) = (   1.3043587   1.4918075   6.0039043  )
        24           O1  tau(  24) = (   5.2767064   1.4903225   6.0039473  )
        25           Ti1 tau(  25) = (   0.0000382   5.9609847   6.0000000  )
        26           Ti1 tau(  26) = (   3.2902200   4.4714249   6.0002472  )
        27           O1  tau(  27) = (   0.0002396   2.9813036   7.9858123  )
        28           O1  tau(  28) = (   3.2902150   2.9813002   7.3038282  )
        29           O1  tau(  29) = (   4.5938453   4.4726049   9.2879030  )
        30           O1  tau(  30) = (   1.9864658   4.4711199   9.2879459  )
        31           Ti1 tau(  31) = (   3.2909982   0.0016570   9.1583503  )
        32           Ti1 tau(  32) = (   0.0005865   4.4518293   9.3323505  )
        33           O1  tau(  33) = (   3.2901940   2.9808873  11.3395626  )
        34           O1  tau(  34) = (   0.0003571   2.9798178  10.5649370  )
        35           O1  tau(  35) = (   1.3083034   4.4645052  12.6348224  )
        36           O1  tau(  36) = (   5.2715349   4.4643886  12.6348286  )
        37           Ti1 tau(  37) = (  -0.0000222   5.9607897  12.7938110  )
        38           Ti1 tau(  38) = (   3.2900986   4.4688685  12.4933344  )
        39           O1  tau(  39) = (   0.0002310   2.9801501  14.6522995  )
        40           O1  tau(  40) = (   3.2900949   2.9818682  13.9375799  )
        41           O1  tau(  41) = (   4.5308161   4.4653576  16.1025217  )
        42           O1  tau(  42) = (   2.0487966   4.4652071  16.1025697  )
        43           Ti1 tau(  43) = (   3.2902182   0.0025481  15.7533349  )
        44           Ti1 tau(  44) = (  -0.0001670   4.4987177  16.1612680  )
        45           O1  tau(  45) = (   3.2900926   2.9813045   4.7018136  )
        46           N1  tau(  46) = (   0.0000161   2.9868793  17.3469016  )
        47           O1  tau(  47) = (   1.3039711   4.4726057   6.0039043  )
        48           O1  tau(  48) = (   5.2763189   4.4711207   6.0039473  )
        49           O1  tau(  49) = (   6.3491669   2.7825235  18.5469016  )
        50           O1  tau(  50) = (   6.2271734   2.6017940  19.6469016  )

     number of k points=    10  Fermi-Dirac smearing, width (Ry)=  0.0007
                       cart. coord. in units 2pi/alat
        k(    1) = (   0.0000000   0.0000000   0.0000000), wk =   0.0625000
        k(    2) = (   0.0000000   0.0419351   0.0000000), wk =   0.1250000
        k(    3) = (   0.0000000  -0.0838702   0.0000000), wk =   0.0625000
        k(    4) = (   0.0379955   0.0000049   0.0000000), wk =   0.1250000
        k(    5) = (   0.0379955   0.0419400   0.0000000), wk =   0.1250000
        k(    6) = (   0.0379955  -0.0838652   0.0000000), wk =   0.1250000
        k(    7) = (   0.0379955  -0.0419301   0.0000000), wk =   0.1250000
        k(    8) = (  -0.0759910  -0.0000099   0.0000000), wk =   0.0625000
        k(    9) = (  -0.0759910   0.0419252   0.0000000), wk =   0.1250000
        k(   10) = (  -0.0759910  -0.0838800   0.0000000), wk =   0.0625000

     Dense  grid:   792059 G-vectors     FFT dimensions: (  75,  72, 300)

     Smooth grid:   200495 G-vectors     FFT dimensions: (  48,  45, 192)

     Estimated max dynamical RAM per process >     385.95 MB

     Estimated total dynamical RAM >       6.03 GB

     Check: negative core charge=   -0.000008
     Generating pointlists ...
     new r_m :   0.7414 (alat units)  1.4011 (a.u.) for type    1
     new r_m :   0.4626 (alat units)  0.8741 (a.u.) for type    2
     new r_m :   0.5111 (alat units)  0.9658 (a.u.) for type    3

     Initial potential from superposition of free atoms

     starting charge  378.99924, renormalised to  395.00000

     negative rho (up, down):  1.189E-02 1.189E-02


     %%%%%%%%%%%%%%%%%%%%%%%%%%%%%%%%%%%%%%%%%%%%%%%%%%%%%%%%%%%%%%%%%%%%%%%%
     %                                                                      %
     % You are using vdW-DF, which was implemented by the Thonhauser group. %
     % Please cite the following two papers that made this development      %
     % possible and the two reviews that describe the various versions:     %
     %                                                                      %
     %   T. Thonhauser et al., PRL 115, 136402 (2015).                      %
     %   T. Thonhauser et al., PRB 76, 125112 (2007).                       %
     %   K. Berland et al., Rep. Prog. Phys. 78, 066501 (2015).             %
     %   D.C. Langreth et al., J. Phys.: Condens. Matter 21, 084203 (2009). %
     %                                                                      %
     %                                                                      %
     % If you are calculating the stress with vdW-DF, please also cite:     %
     %                                                                      %
     %   R. Sabatini et al., J. Phys.: Condens. Matter 24, 424209 (2012).   %
     %                                                                      %
     %%%%%%%%%%%%%%%%%%%%%%%%%%%%%%%%%%%%%%%%%%%%%%%%%%%%%%%%%%%%%%%%%%%%%%%%


 
     Adding external electric field

     Computed dipole along edir(3) : 
        Dipole               -7.6877 Ry au,        -19.5403 Debye
        Dipole field         -0.0145 Ry au, 
 
        Potential amp.        1.3449 Ry
        Total length         46.3494 bohr
 
 
     Adding external electric field

     Computed dipole along edir(3) : 
        Dipole               -7.6877 Ry au,        -19.5403 Debye
        Dipole field         -0.0145 Ry au, 
 
        Potential amp.        1.3449 Ry
        Total length         46.3494 bohr
 
     Starting wfcs are  296 randomized atomic wfcs
     Checking if some PAW data can be deallocated... 
  @ DRIVER MODE: Message from server: STATUS
  @ DRIVER MODE: Message from server: POSDATA
  @ DRIVER MODE: Reading and sharing cell 
  @ DRIVER MODE: Reading and sharing positions 
  @ DRIVER MODE: Received positions 

     total cpu time spent up to now is       19.7 secs

     Self-consistent Calculation

     iteration #  1     ecut=    36.75 Ry     beta= 0.05
     Davidson diagonalization with overlap
     ethr =  1.00E-02,  avg # of iterations =  2.8

     negative rho (up, down):  1.094E-02 1.094E-02
 
     Adding external electric field

     Computed dipole along edir(3) : 
        Dipole               32.5557 Ry au,         82.7482 Debye
        Dipole field          0.0614 Ry au, 
 
        Potential amp.       -5.6951 Ry
        Total length         46.3494 bohr
 
 
     Adding external electric field

     Computed dipole along edir(3) : 
        Dipole               32.5557 Ry au,         82.7482 Debye
        Dipole field          0.0614 Ry au, 
 
        Potential amp.       -5.6951 Ry
        Total length         46.3494 bohr
 

     total cpu time spent up to now is       40.2 secs

     total energy              =   -3110.68325829 Ry
     estimated scf accuracy    <    2637.44250427 Ry

     total magnetization       =     0.00 Bohr mag/cell
     absolute magnetization    =     0.08 Bohr mag/cell

     iteration #  2     ecut=    36.75 Ry     beta= 0.05
     Davidson diagonalization with overlap
     ethr =  1.00E-02,  avg # of iterations = 16.1

     negative rho (up, down):  1.040E-02 1.040E-02
 
     Adding external electric field

     Computed dipole along edir(3) : 
        Dipole               -3.1288 Ry au,         -7.9526 Debye
        Dipole field         -0.0059 Ry au, 
 
        Potential amp.        0.5473 Ry
        Total length         46.3494 bohr
 
 
     Adding external electric field

     Computed dipole along edir(3) : 
        Dipole               -3.1288 Ry au,         -7.9526 Debye
        Dipole field         -0.0059 Ry au, 
 
        Potential amp.        0.5473 Ry
        Total length         46.3494 bohr
 

     total cpu time spent up to now is      143.6 secs

     total energy              =   -2949.69699929 Ry
     estimated scf accuracy    <   51464.58725312 Ry

     total magnetization       =     0.48 Bohr mag/cell
     absolute magnetization    =     0.84 Bohr mag/cell

     iteration #  3     ecut=    36.75 Ry     beta= 0.05
     Davidson diagonalization with overlap
     ethr =  1.00E-02,  avg # of iterations = 15.6

     negative rho (up, down):  1.028E-02 1.028E-02
 
     Adding external electric field

     Computed dipole along edir(3) : 
        Dipole               -4.6563 Ry au,        -11.8350 Debye
        Dipole field         -0.0088 Ry au, 
 
        Potential amp.        0.8145 Ry
        Total length         46.3494 bohr
 
 
     Adding external electric field

     Computed dipole along edir(3) : 
        Dipole               -4.6563 Ry au,        -11.8350 Debye
        Dipole field         -0.0088 Ry au, 
 
        Potential amp.        0.8145 Ry
        Total length         46.3494 bohr
 

     total cpu time spent up to now is      220.6 secs

     total energy              =   -3331.91033434 Ry
     estimated scf accuracy    <    2189.06021783 Ry

     total magnetization       =     0.08 Bohr mag/cell
     absolute magnetization    =     0.53 Bohr mag/cell

     iteration #  4     ecut=    36.75 Ry     beta= 0.05
     Davidson diagonalization with overlap
     c_bands:  5 eigenvalues not converged
     c_bands:  4 eigenvalues not converged
     ethr =  1.00E-02,  avg # of iterations =  8.6

     negative rho (up, down):  1.032E-02 1.030E-02
 
     Adding external electric field

     Computed dipole along edir(3) : 
        Dipole               -5.9859 Ry au,        -15.2147 Debye
        Dipole field         -0.0113 Ry au, 
 
        Potential amp.        1.0471 Ry
        Total length         46.3494 bohr
 
 
     Adding external electric field

     Computed dipole along edir(3) : 
        Dipole               -5.9859 Ry au,        -15.2147 Debye
        Dipole field         -0.0113 Ry au, 
 
        Potential amp.        1.0471 Ry
        Total length         46.3494 bohr
 

     total cpu time spent up to now is      248.0 secs

     total energy              =   -3322.19875879 Ry
     estimated scf accuracy    <    1177.80060667 Ry

     total magnetization       =    -0.22 Bohr mag/cell
     absolute magnetization    =     1.37 Bohr mag/cell

     iteration #  5     ecut=    36.75 Ry     beta= 0.05
     Davidson diagonalization with overlap
     ethr =  1.00E-02,  avg # of iterations = 10.1

     negative rho (up, down):  1.041E-02 1.038E-02
 
     Adding external electric field

     Computed dipole along edir(3) : 
        Dipole               -5.1813 Ry au,        -13.1696 Debye
        Dipole field         -0.0098 Ry au, 
 
        Potential amp.        0.9064 Ry
        Total length         46.3494 bohr
 
 
     Adding external electric field

     Computed dipole along edir(3) : 
        Dipole               -5.1813 Ry au,        -13.1696 Debye
        Dipole field         -0.0098 Ry au, 
 
        Potential amp.        0.9064 Ry
        Total length         46.3494 bohr
 

     total cpu time spent up to now is      291.0 secs

     total energy              =   -3349.71620447 Ry
     estimated scf accuracy    <      36.09444898 Ry

     total magnetization       =     0.00 Bohr mag/cell
     absolute magnetization    =     0.32 Bohr mag/cell

     iteration #  6     ecut=    36.75 Ry     beta= 0.05
     Davidson diagonalization with overlap
     ethr =  9.14E-03,  avg # of iterations =  1.5

     negative rho (up, down):  1.117E-02 1.120E-02
 
     Adding external electric field

     Computed dipole along edir(3) : 
        Dipole               -1.6212 Ry au,         -4.1207 Debye
        Dipole field         -0.0031 Ry au, 
 
        Potential amp.        0.2836 Ry
        Total length         46.3494 bohr
 
 
     Adding external electric field

     Computed dipole along edir(3) : 
        Dipole               -1.6212 Ry au,         -4.1207 Debye
        Dipole field         -0.0031 Ry au, 
 
        Potential amp.        0.2836 Ry
        Total length         46.3494 bohr
 

     total cpu time spent up to now is      310.9 secs

     total energy              =   -3344.73337973 Ry
     estimated scf accuracy    <      31.80577901 Ry

     total magnetization       =    -0.16 Bohr mag/cell
     absolute magnetization    =     0.39 Bohr mag/cell

     iteration #  7     ecut=    36.75 Ry     beta= 0.05
     Davidson diagonalization with overlap
     ethr =  8.05E-03,  avg # of iterations =  8.6

     negative rho (up, down):  1.118E-02 1.121E-02
 
     Adding external electric field

     Computed dipole along edir(3) : 
        Dipole               -1.8623 Ry au,         -4.7335 Debye
        Dipole field         -0.0035 Ry au, 
 
        Potential amp.        0.3258 Ry
        Total length         46.3494 bohr
 
 
     Adding external electric field

     Computed dipole along edir(3) : 
        Dipole               -1.8623 Ry au,         -4.7335 Debye
        Dipole field         -0.0035 Ry au, 
 
        Potential amp.        0.3258 Ry
        Total length         46.3494 bohr
 

     total cpu time spent up to now is      335.6 secs

     total energy              =   -3348.38722422 Ry
     estimated scf accuracy    <     238.16910943 Ry

     total magnetization       =     1.27 Bohr mag/cell
     absolute magnetization    =     1.50 Bohr mag/cell

     iteration #  8     ecut=    36.75 Ry     beta= 0.05
     Davidson diagonalization with overlap
     ethr =  8.05E-03,  avg # of iterations =  1.6

     negative rho (up, down):  1.135E-02 1.129E-02
 
     Adding external electric field

     Computed dipole along edir(3) : 
        Dipole               -3.3867 Ry au,         -8.6081 Debye
        Dipole field         -0.0064 Ry au, 
 
        Potential amp.        0.5924 Ry
        Total length         46.3494 bohr
 
 
     Adding external electric field

     Computed dipole along edir(3) : 
        Dipole               -3.3867 Ry au,         -8.6081 Debye
        Dipole field         -0.0064 Ry au, 
 
        Potential amp.        0.5924 Ry
        Total length         46.3494 bohr
 

     total cpu time spent up to now is      353.6 secs

     total energy              =   -3343.47757805 Ry
     estimated scf accuracy    <     211.89567756 Ry

     total magnetization       =     0.88 Bohr mag/cell
     absolute magnetization    =     1.22 Bohr mag/cell

     iteration #  9     ecut=    36.75 Ry     beta= 0.05
     Davidson diagonalization with overlap
     ethr =  8.05E-03,  avg # of iterations =  3.0

     negative rho (up, down):  1.176E-02 1.170E-02
 
     Adding external electric field

     Computed dipole along edir(3) : 
        Dipole               -2.6761 Ry au,         -6.8020 Debye
        Dipole field         -0.0051 Ry au, 
 
        Potential amp.        0.4681 Ry
        Total length         46.3494 bohr
 
 
     Adding external electric field

     Computed dipole along edir(3) : 
        Dipole               -2.6761 Ry au,         -6.8020 Debye
        Dipole field         -0.0051 Ry au, 
 
        Potential amp.        0.4681 Ry
        Total length         46.3494 bohr
 

     total cpu time spent up to now is      378.0 secs

     total energy              =   -3346.30823739 Ry
     estimated scf accuracy    <      19.35766306 Ry

     total magnetization       =    -0.30 Bohr mag/cell
     absolute magnetization    =     1.85 Bohr mag/cell

     iteration # 10     ecut=    36.75 Ry     beta= 0.05
     Davidson diagonalization with overlap
     ethr =  4.90E-03,  avg # of iterations =  4.5

     negative rho (up, down):  1.192E-02 1.192E-02
 
     Adding external electric field

     Computed dipole along edir(3) : 
        Dipole               -1.7198 Ry au,         -4.3713 Debye
        Dipole field         -0.0032 Ry au, 
 
        Potential amp.        0.3009 Ry
        Total length         46.3494 bohr
 
 
     Adding external electric field

     Computed dipole along edir(3) : 
        Dipole               -1.7198 Ry au,         -4.3713 Debye
        Dipole field         -0.0032 Ry au, 
 
        Potential amp.        0.3009 Ry
        Total length         46.3494 bohr
 

     total cpu time spent up to now is      399.2 secs

     total energy              =   -3347.79868187 Ry
     estimated scf accuracy    <      69.27749455 Ry

     total magnetization       =     0.70 Bohr mag/cell
     absolute magnetization    =     1.21 Bohr mag/cell

     iteration # 11     ecut=    36.75 Ry     beta= 0.05
     Davidson diagonalization with overlap
     ethr =  4.90E-03,  avg # of iterations =  2.5

     negative rho (up, down):  1.192E-02 1.190E-02
 
     Adding external electric field

     Computed dipole along edir(3) : 
        Dipole               -2.0582 Ry au,         -5.2315 Debye
        Dipole field         -0.0039 Ry au, 
 
        Potential amp.        0.3601 Ry
        Total length         46.3494 bohr
 
 
     Adding external electric field

     Computed dipole along edir(3) : 
        Dipole               -2.0582 Ry au,         -5.2315 Debye
        Dipole field         -0.0039 Ry au, 
 
        Potential amp.        0.3601 Ry
        Total length         46.3494 bohr
 

     total cpu time spent up to now is      418.1 secs

     total energy              =   -3347.51334985 Ry
     estimated scf accuracy    <     254.24856018 Ry

     total magnetization       =     1.03 Bohr mag/cell
     absolute magnetization    =     1.33 Bohr mag/cell

     iteration # 12     ecut=    36.75 Ry     beta= 0.05
     Davidson diagonalization with overlap
     ethr =  4.90E-03,  avg # of iterations =  1.2

     negative rho (up, down):  1.162E-02 1.162E-02
 
     Adding external electric field

     Computed dipole along edir(3) : 
        Dipole               -2.0714 Ry au,         -5.2650 Debye
        Dipole field         -0.0039 Ry au, 
 
        Potential amp.        0.3624 Ry
        Total length         46.3494 bohr
 
 
     Adding external electric field

     Computed dipole along edir(3) : 
        Dipole               -2.0714 Ry au,         -5.2650 Debye
        Dipole field         -0.0039 Ry au, 
 
        Potential amp.        0.3624 Ry
        Total length         46.3494 bohr
 

     total cpu time spent up to now is      435.6 secs

     total energy              =   -3344.76726539 Ry
     estimated scf accuracy    <     149.31935721 Ry

     total magnetization       =     0.53 Bohr mag/cell
     absolute magnetization    =     1.03 Bohr mag/cell

     iteration # 13     ecut=    36.75 Ry     beta= 0.05
     Davidson diagonalization with overlap
     ethr =  4.90E-03,  avg # of iterations =  3.0

     negative rho (up, down):  1.138E-02 1.140E-02
 
     Adding external electric field

     Computed dipole along edir(3) : 
        Dipole               -1.9325 Ry au,         -4.9119 Debye
        Dipole field         -0.0036 Ry au, 
 
        Potential amp.        0.3381 Ry
        Total length         46.3494 bohr
 
 
     Adding external electric field

     Computed dipole along edir(3) : 
        Dipole               -1.9325 Ry au,         -4.9119 Debye
        Dipole field         -0.0036 Ry au, 
 
        Potential amp.        0.3381 Ry
        Total length         46.3494 bohr
 

     total cpu time spent up to now is      455.9 secs

     total energy              =   -3346.37070282 Ry
     estimated scf accuracy    <       3.08094057 Ry

     total magnetization       =     0.02 Bohr mag/cell
     absolute magnetization    =     0.63 Bohr mag/cell

     iteration # 14     ecut=    36.75 Ry     beta= 0.05
     Davidson diagonalization with overlap
     ethr =  7.80E-04,  avg # of iterations =  7.2

     negative rho (up, down):  1.125E-02 1.129E-02
 
     Adding external electric field

     Computed dipole along edir(3) : 
        Dipole               -1.6919 Ry au,         -4.3005 Debye
        Dipole field         -0.0032 Ry au, 
 
        Potential amp.        0.2960 Ry
        Total length         46.3494 bohr
 
 
     Adding external electric field

     Computed dipole along edir(3) : 
        Dipole               -1.6919 Ry au,         -4.3005 Debye
        Dipole field         -0.0032 Ry au, 
 
        Potential amp.        0.2960 Ry
        Total length         46.3494 bohr
 

     total cpu time spent up to now is      480.5 secs

     total energy              =   -3346.47187260 Ry
     estimated scf accuracy    <       1.43650999 Ry

     total magnetization       =     0.32 Bohr mag/cell
     absolute magnetization    =     0.43 Bohr mag/cell

     iteration # 15     ecut=    36.75 Ry     beta= 0.05
     Davidson diagonalization with overlap
     c_bands:  1 eigenvalues not converged
     c_bands:  1 eigenvalues not converged
     c_bands:  1 eigenvalues not converged
     c_bands:  2 eigenvalues not converged
     c_bands:  2 eigenvalues not converged
     c_bands:  1 eigenvalues not converged
     c_bands:  1 eigenvalues not converged
     c_bands:  1 eigenvalues not converged
     ethr =  3.64E-04,  avg # of iterations = 18.6

     negative rho (up, down):  1.129E-02 1.131E-02
 
     Adding external electric field

     Computed dipole along edir(3) : 
        Dipole               -1.7585 Ry au,         -4.4696 Debye
        Dipole field         -0.0033 Ry au, 
 
        Potential amp.        0.3076 Ry
        Total length         46.3494 bohr
 
 
     Adding external electric field

     Computed dipole along edir(3) : 
        Dipole               -1.7585 Ry au,         -4.4696 Debye
        Dipole field         -0.0033 Ry au, 
 
        Potential amp.        0.3076 Ry
        Total length         46.3494 bohr
 

     total cpu time spent up to now is      517.2 secs

     total energy              =   -3346.49465677 Ry
     estimated scf accuracy    <       2.92474097 Ry

     total magnetization       =    -0.18 Bohr mag/cell
     absolute magnetization    =     0.28 Bohr mag/cell

     iteration # 16     ecut=    36.75 Ry     beta= 0.05
     Davidson diagonalization with overlap
     ethr =  3.64E-04,  avg # of iterations =  1.6

     negative rho (up, down):  1.135E-02 1.135E-02
 
     Adding external electric field

     Computed dipole along edir(3) : 
        Dipole               -1.8921 Ry au,         -4.8093 Debye
        Dipole field         -0.0036 Ry au, 
 
        Potential amp.        0.3310 Ry
        Total length         46.3494 bohr
 
 
     Adding external electric field

     Computed dipole along edir(3) : 
        Dipole               -1.8921 Ry au,         -4.8093 Debye
        Dipole field         -0.0036 Ry au, 
 
        Potential amp.        0.3310 Ry
        Total length         46.3494 bohr
 

     total cpu time spent up to now is      535.7 secs

     total energy              =   -3346.43336365 Ry
     estimated scf accuracy    <       1.09157096 Ry

     total magnetization       =     0.51 Bohr mag/cell
     absolute magnetization    =     0.60 Bohr mag/cell

     iteration # 17     ecut=    36.75 Ry     beta= 0.05
     Davidson diagonalization with overlap
     ethr =  2.76E-04,  avg # of iterations =  4.5

     negative rho (up, down):  1.124E-02 1.123E-02
 
     Adding external electric field

     Computed dipole along edir(3) : 
        Dipole               -1.7475 Ry au,         -4.4416 Debye
        Dipole field         -0.0033 Ry au, 
 
        Potential amp.        0.3057 Ry
        Total length         46.3494 bohr
 
 
     Adding external electric field

     Computed dipole along edir(3) : 
        Dipole               -1.7475 Ry au,         -4.4416 Debye
        Dipole field         -0.0033 Ry au, 
 
        Potential amp.        0.3057 Ry
        Total length         46.3494 bohr
 

     total cpu time spent up to now is      556.9 secs

     total energy              =   -3346.42577232 Ry
     estimated scf accuracy    <       0.79405896 Ry

     total magnetization       =     0.82 Bohr mag/cell
     absolute magnetization    =     0.88 Bohr mag/cell

     iteration # 18     ecut=    36.75 Ry     beta= 0.05
     Davidson diagonalization with overlap
     ethr =  2.01E-04,  avg # of iterations =  5.0

     negative rho (up, down):  1.117E-02 1.117E-02
 
     Adding external electric field

     Computed dipole along edir(3) : 
        Dipole               -1.4961 Ry au,         -3.8028 Debye
        Dipole field         -0.0028 Ry au, 
 
        Potential amp.        0.2617 Ry
        Total length         46.3494 bohr
 
 
     Adding external electric field

     Computed dipole along edir(3) : 
        Dipole               -1.4961 Ry au,         -3.8028 Debye
        Dipole field         -0.0028 Ry au, 
 
        Potential amp.        0.2617 Ry
        Total length         46.3494 bohr
 

     total cpu time spent up to now is      578.1 secs

     total energy              =   -3346.60572421 Ry
     estimated scf accuracy    <      19.71679131 Ry

     total magnetization       =    -0.25 Bohr mag/cell
     absolute magnetization    =     0.34 Bohr mag/cell

     iteration # 19     ecut=    36.75 Ry     beta= 0.05
     Davidson diagonalization with overlap
     ethr =  2.01E-04,  avg # of iterations =  2.0

     negative rho (up, down):  1.112E-02 1.114E-02
 
     Adding external electric field

     Computed dipole along edir(3) : 
        Dipole               -1.2482 Ry au,         -3.1727 Debye
        Dipole field         -0.0024 Ry au, 
 
        Potential amp.        0.2184 Ry
        Total length         46.3494 bohr
 
 
     Adding external electric field

     Computed dipole along edir(3) : 
        Dipole               -1.2482 Ry au,         -3.1727 Debye
        Dipole field         -0.0024 Ry au, 
 
        Potential amp.        0.2184 Ry
        Total length         46.3494 bohr
 

     total cpu time spent up to now is      597.9 secs

     total energy              =   -3346.49709846 Ry
     estimated scf accuracy    <      19.04755586 Ry

     total magnetization       =    -0.12 Bohr mag/cell
     absolute magnetization    =     0.23 Bohr mag/cell

     iteration # 20     ecut=    36.75 Ry     beta= 0.05
     Davidson diagonalization with overlap
     ethr =  2.01E-04,  avg # of iterations =  1.4

     negative rho (up, down):  1.104E-02 1.109E-02
 
     Adding external electric field

     Computed dipole along edir(3) : 
        Dipole               -0.6903 Ry au,         -1.7547 Debye
        Dipole field         -0.0013 Ry au, 
 
        Potential amp.        0.1208 Ry
        Total length         46.3494 bohr
 
 
     Adding external electric field

     Computed dipole along edir(3) : 
        Dipole               -0.6903 Ry au,         -1.7547 Debye
        Dipole field         -0.0013 Ry au, 
 
        Potential amp.        0.1208 Ry
        Total length         46.3494 bohr
 

     total cpu time spent up to now is      615.5 secs

     total energy              =   -3346.26817593 Ry
     estimated scf accuracy    <      18.28049017 Ry

     total magnetization       =    -0.19 Bohr mag/cell
     absolute magnetization    =     0.29 Bohr mag/cell

     iteration # 21     ecut=    36.75 Ry     beta= 0.05
     Davidson diagonalization with overlap
     ethr =  2.01E-04,  avg # of iterations =  5.4

     negative rho (up, down):  1.096E-02 1.102E-02
 
     Adding external electric field

     Computed dipole along edir(3) : 
        Dipole               -0.5109 Ry au,         -1.2987 Debye
        Dipole field         -0.0010 Ry au, 
 
        Potential amp.        0.0894 Ry
        Total length         46.3494 bohr
 
 
     Adding external electric field

     Computed dipole along edir(3) : 
        Dipole               -0.5109 Ry au,         -1.2987 Debye
        Dipole field         -0.0010 Ry au, 
 
        Potential amp.        0.0894 Ry
        Total length         46.3494 bohr
 

     total cpu time spent up to now is      637.0 secs

     total energy              =   -3346.39872340 Ry
     estimated scf accuracy    <       0.34086581 Ry

     total magnetization       =     0.98 Bohr mag/cell
     absolute magnetization    =     1.03 Bohr mag/cell

     iteration # 22     ecut=    36.75 Ry     beta= 0.05
     Davidson diagonalization with overlap
     c_bands:  1 eigenvalues not converged
     ethr =  8.63E-05,  avg # of iterations = 12.6

     negative rho (up, down):  1.086E-02 1.094E-02
 
     Adding external electric field

     Computed dipole along edir(3) : 
        Dipole               -0.5347 Ry au,         -1.3590 Debye
        Dipole field         -0.0010 Ry au, 
 
        Potential amp.        0.0935 Ry
        Total length         46.3494 bohr
 
 
     Adding external electric field

     Computed dipole along edir(3) : 
        Dipole               -0.5347 Ry au,         -1.3590 Debye
        Dipole field         -0.0010 Ry au, 
 
        Potential amp.        0.0935 Ry
        Total length         46.3494 bohr
 

     total cpu time spent up to now is      664.0 secs

     total energy              =   -3346.32878273 Ry
     estimated scf accuracy    <       0.31221731 Ry

     total magnetization       =     1.00 Bohr mag/cell
     absolute magnetization    =     1.06 Bohr mag/cell

     iteration # 23     ecut=    36.75 Ry     beta= 0.05
     Davidson diagonalization with overlap
     c_bands:  1 eigenvalues not converged
     c_bands:  4 eigenvalues not converged
     c_bands:  2 eigenvalues not converged
     c_bands:  2 eigenvalues not converged
     c_bands:  4 eigenvalues not converged
     c_bands:  1 eigenvalues not converged
     c_bands:  1 eigenvalues not converged
     c_bands:  1 eigenvalues not converged
     c_bands:  1 eigenvalues not converged
     ethr =  7.90E-05,  avg # of iterations = 16.9

     negative rho (up, down):  1.078E-02 1.089E-02
 
     Adding external electric field

     Computed dipole along edir(3) : 
        Dipole               -0.3662 Ry au,         -0.9308 Debye
        Dipole field         -0.0007 Ry au, 
 
        Potential amp.        0.0641 Ry
        Total length         46.3494 bohr
 
 
     Adding external electric field

     Computed dipole along edir(3) : 
        Dipole               -0.3662 Ry au,         -0.9308 Debye
        Dipole field         -0.0007 Ry au, 
 
        Potential amp.        0.0641 Ry
        Total length         46.3494 bohr
 

     total cpu time spent up to now is      700.5 secs

     total energy              =   -3346.41219197 Ry
     estimated scf accuracy    <       3.19215721 Ry

     total magnetization       =     1.30 Bohr mag/cell
     absolute magnetization    =     1.87 Bohr mag/cell

     iteration # 24     ecut=    36.75 Ry     beta= 0.05
     Davidson diagonalization with overlap
     ethr =  7.90E-05,  avg # of iterations =  2.7

     negative rho (up, down):  1.077E-02 1.088E-02
 
     Adding external electric field

     Computed dipole along edir(3) : 
        Dipole               -0.3232 Ry au,         -0.8216 Debye
        Dipole field         -0.0006 Ry au, 
 
        Potential amp.        0.0565 Ry
        Total length         46.3494 bohr
 
 
     Adding external electric field

     Computed dipole along edir(3) : 
        Dipole               -0.3232 Ry au,         -0.8216 Debye
        Dipole field         -0.0006 Ry au, 
 
        Potential amp.        0.0565 Ry
        Total length         46.3494 bohr
 

     total cpu time spent up to now is      722.2 secs

     total energy              =   -3346.38561522 Ry
     estimated scf accuracy    <       9.63006810 Ry

     total magnetization       =     0.65 Bohr mag/cell
     absolute magnetization    =     0.94 Bohr mag/cell

     iteration # 25     ecut=    36.75 Ry     beta= 0.05
     Davidson diagonalization with overlap
     ethr =  7.90E-05,  avg # of iterations =  2.2

     negative rho (up, down):  1.070E-02 1.086E-02
 
     Adding external electric field

     Computed dipole along edir(3) : 
        Dipole               -0.1572 Ry au,         -0.3995 Debye
        Dipole field         -0.0003 Ry au, 
 
        Potential amp.        0.0275 Ry
        Total length         46.3494 bohr
 
 
     Adding external electric field

     Computed dipole along edir(3) : 
        Dipole               -0.1572 Ry au,         -0.3995 Debye
        Dipole field         -0.0003 Ry au, 
 
        Potential amp.        0.0275 Ry
        Total length         46.3494 bohr
 

     total cpu time spent up to now is      740.2 secs

     total energy              =   -3346.38162150 Ry
     estimated scf accuracy    <       2.12114145 Ry

     total magnetization       =     1.79 Bohr mag/cell
     absolute magnetization    =     1.99 Bohr mag/cell

     iteration # 26     ecut=    36.75 Ry     beta= 0.05
     Davidson diagonalization with overlap
     ethr =  7.90E-05,  avg # of iterations =  1.9

     negative rho (up, down):  1.069E-02 1.084E-02
 
     Adding external electric field

     Computed dipole along edir(3) : 
        Dipole               -0.1587 Ry au,         -0.4034 Debye
        Dipole field         -0.0003 Ry au, 
 
        Potential amp.        0.0278 Ry
        Total length         46.3494 bohr
 
 
     Adding external electric field

     Computed dipole along edir(3) : 
        Dipole               -0.1587 Ry au,         -0.4034 Debye
        Dipole field         -0.0003 Ry au, 
 
        Potential amp.        0.0278 Ry
        Total length         46.3494 bohr
 

     total cpu time spent up to now is      759.4 secs

     total energy              =   -3346.38520700 Ry
     estimated scf accuracy    <       0.49272077 Ry

     total magnetization       =     1.44 Bohr mag/cell
     absolute magnetization    =     1.69 Bohr mag/cell

     iteration # 27     ecut=    36.75 Ry     beta= 0.05
     Davidson diagonalization with overlap
     ethr =  7.90E-05,  avg # of iterations =  1.6

     negative rho (up, down):  1.066E-02 1.083E-02
 
     Adding external electric field

     Computed dipole along edir(3) : 
        Dipole               -0.0825 Ry au,         -0.2097 Debye
        Dipole field         -0.0002 Ry au, 
 
        Potential amp.        0.0144 Ry
        Total length         46.3494 bohr
 
 
     Adding external electric field

     Computed dipole along edir(3) : 
        Dipole               -0.0825 Ry au,         -0.2097 Debye
        Dipole field         -0.0002 Ry au, 
 
        Potential amp.        0.0144 Ry
        Total length         46.3494 bohr
 

     total cpu time spent up to now is      778.8 secs

     total energy              =   -3346.37585010 Ry
     estimated scf accuracy    <       1.29377624 Ry

     total magnetization       =     1.82 Bohr mag/cell
     absolute magnetization    =     1.95 Bohr mag/cell

     iteration # 28     ecut=    36.75 Ry     beta= 0.05
     Davidson diagonalization with overlap
     ethr =  7.90E-05,  avg # of iterations =  1.9

     negative rho (up, down):  1.064E-02 1.081E-02
 
     Adding external electric field

     Computed dipole along edir(3) : 
        Dipole               -0.0356 Ry au,         -0.0906 Debye
        Dipole field         -0.0001 Ry au, 
 
        Potential amp.        0.0062 Ry
        Total length         46.3494 bohr
 
 
     Adding external electric field

     Computed dipole along edir(3) : 
        Dipole               -0.0356 Ry au,         -0.0906 Debye
        Dipole field         -0.0001 Ry au, 
 
        Potential amp.        0.0062 Ry
        Total length         46.3494 bohr
 

     total cpu time spent up to now is      797.9 secs

     total energy              =   -3346.38252059 Ry
     estimated scf accuracy    <       0.06688838 Ry

     total magnetization       =     1.13 Bohr mag/cell
     absolute magnetization    =     1.25 Bohr mag/cell

     iteration # 29     ecut=    36.75 Ry     beta= 0.05
     Davidson diagonalization with overlap
     c_bands:  1 eigenvalues not converged
     c_bands:  4 eigenvalues not converged
     c_bands:  3 eigenvalues not converged
     c_bands:  1 eigenvalues not converged
     c_bands:  2 eigenvalues not converged
     c_bands:  3 eigenvalues not converged
     ethr =  1.69E-05,  avg # of iterations = 12.7

     negative rho (up, down):  1.064E-02 1.080E-02
 
     Adding external electric field

     Computed dipole along edir(3) : 
        Dipole               -0.0984 Ry au,         -0.2501 Debye
        Dipole field         -0.0002 Ry au, 
 
        Potential amp.        0.0172 Ry
        Total length         46.3494 bohr
 
 
     Adding external electric field

     Computed dipole along edir(3) : 
        Dipole               -0.0984 Ry au,         -0.2501 Debye
        Dipole field         -0.0002 Ry au, 
 
        Potential amp.        0.0172 Ry
        Total length         46.3494 bohr
 

     total cpu time spent up to now is      826.5 secs

     total energy              =   -3346.38258665 Ry
     estimated scf accuracy    <       0.04960431 Ry

     total magnetization       =     1.12 Bohr mag/cell
     absolute magnetization    =     1.21 Bohr mag/cell

     iteration # 30     ecut=    36.75 Ry     beta= 0.05
     Davidson diagonalization with overlap
     c_bands:  2 eigenvalues not converged
     c_bands:  4 eigenvalues not converged
     c_bands:  1 eigenvalues not converged
     c_bands:  1 eigenvalues not converged
     ethr =  1.26E-05,  avg # of iterations = 10.8

     negative rho (up, down):  1.059E-02 1.075E-02
 
     Adding external electric field

     Computed dipole along edir(3) : 
        Dipole               -0.0197 Ry au,         -0.0502 Debye
        Dipole field         -0.0000 Ry au, 
 
        Potential amp.        0.0035 Ry
        Total length         46.3494 bohr
 
 
     Adding external electric field

     Computed dipole along edir(3) : 
        Dipole               -0.0197 Ry au,         -0.0502 Debye
        Dipole field         -0.0000 Ry au, 
 
        Potential amp.        0.0035 Ry
        Total length         46.3494 bohr
 

     total cpu time spent up to now is      854.4 secs

     total energy              =   -3346.38465662 Ry
     estimated scf accuracy    <       0.04673030 Ry

     total magnetization       =     1.06 Bohr mag/cell
     absolute magnetization    =     1.18 Bohr mag/cell

     iteration # 31     ecut=    36.75 Ry     beta= 0.05
     Davidson diagonalization with overlap
     c_bands:  1 eigenvalues not converged
     ethr =  1.18E-05,  avg # of iterations =  7.0

     negative rho (up, down):  1.048E-02 1.072E-02
 
     Adding external electric field

     Computed dipole along edir(3) : 
        Dipole                0.4343 Ry au,          1.1039 Debye
        Dipole field          0.0008 Ry au, 
 
        Potential amp.       -0.0760 Ry
        Total length         46.3494 bohr
 
 
     Adding external electric field

     Computed dipole along edir(3) : 
        Dipole                0.4343 Ry au,          1.1039 Debye
        Dipole field          0.0008 Ry au, 
 
        Potential amp.       -0.0760 Ry
        Total length         46.3494 bohr
 

     total cpu time spent up to now is      877.4 secs

     total energy              =   -3346.38759325 Ry
     estimated scf accuracy    <       0.06708091 Ry

     total magnetization       =     1.00 Bohr mag/cell
     absolute magnetization    =     1.11 Bohr mag/cell

     iteration # 32     ecut=    36.75 Ry     beta= 0.05
     Davidson diagonalization with overlap
     ethr =  1.18E-05,  avg # of iterations =  6.0

     negative rho (up, down):  1.047E-02 1.070E-02
 
     Adding external electric field

     Computed dipole along edir(3) : 
        Dipole                0.4263 Ry au,          1.0836 Debye
        Dipole field          0.0008 Ry au, 
 
        Potential amp.       -0.0746 Ry
        Total length         46.3494 bohr
 
 
     Adding external electric field

     Computed dipole along edir(3) : 
        Dipole                0.4263 Ry au,          1.0836 Debye
        Dipole field          0.0008 Ry au, 
 
        Potential amp.       -0.0746 Ry
        Total length         46.3494 bohr
 

     total cpu time spent up to now is      902.1 secs

     total energy              =   -3346.39368831 Ry
     estimated scf accuracy    <       0.09089579 Ry

     total magnetization       =     1.00 Bohr mag/cell
     absolute magnetization    =     1.13 Bohr mag/cell

     iteration # 33     ecut=    36.75 Ry     beta= 0.05
     Davidson diagonalization with overlap
     ethr =  1.18E-05,  avg # of iterations =  5.0

     negative rho (up, down):  1.047E-02 1.069E-02
 
     Adding external electric field

     Computed dipole along edir(3) : 
        Dipole                0.3766 Ry au,          0.9573 Debye
        Dipole field          0.0007 Ry au, 
 
        Potential amp.       -0.0659 Ry
        Total length         46.3494 bohr
 
 
     Adding external electric field

     Computed dipole along edir(3) : 
        Dipole                0.3766 Ry au,          0.9573 Debye
        Dipole field          0.0007 Ry au, 
 
        Potential amp.       -0.0659 Ry
        Total length         46.3494 bohr
 

     total cpu time spent up to now is      923.7 secs

     total energy              =   -3346.39315765 Ry
     estimated scf accuracy    <       0.06317158 Ry

     total magnetization       =     1.00 Bohr mag/cell
     absolute magnetization    =     1.15 Bohr mag/cell

     iteration # 34     ecut=    36.75 Ry     beta= 0.05
     Davidson diagonalization with overlap
     ethr =  1.18E-05,  avg # of iterations =  2.7

     negative rho (up, down):  1.060E-02 1.082E-02
 
     Adding external electric field

     Computed dipole along edir(3) : 
        Dipole                0.3707 Ry au,          0.9422 Debye
        Dipole field          0.0007 Ry au, 
 
        Potential amp.       -0.0648 Ry
        Total length         46.3494 bohr
 
 
     Adding external electric field

     Computed dipole along edir(3) : 
        Dipole                0.3707 Ry au,          0.9422 Debye
        Dipole field          0.0007 Ry au, 
 
        Potential amp.       -0.0648 Ry
        Total length         46.3494 bohr
 

     total cpu time spent up to now is      945.2 secs

     total energy              =   -3346.39388373 Ry
     estimated scf accuracy    <       0.04598022 Ry

     total magnetization       =     1.00 Bohr mag/cell
     absolute magnetization    =     1.16 Bohr mag/cell

     iteration # 35     ecut=    36.75 Ry     beta= 0.05
     Davidson diagonalization with overlap
     ethr =  1.16E-05,  avg # of iterations =  1.9

     negative rho (up, down):  1.154E-02 1.178E-02
 
     Adding external electric field

     Computed dipole along edir(3) : 
        Dipole                0.3335 Ry au,          0.8477 Debye
        Dipole field          0.0006 Ry au, 
 
        Potential amp.       -0.0583 Ry
        Total length         46.3494 bohr
 
 
     Adding external electric field

     Computed dipole along edir(3) : 
        Dipole                0.3335 Ry au,          0.8477 Debye
        Dipole field          0.0006 Ry au, 
 
        Potential amp.       -0.0583 Ry
        Total length         46.3494 bohr
 

     total cpu time spent up to now is      963.3 secs

     total energy              =   -3346.39511721 Ry
     estimated scf accuracy    <       0.00948879 Ry

     total magnetization       =     1.11 Bohr mag/cell
     absolute magnetization    =     1.23 Bohr mag/cell

     iteration # 36     ecut=    36.75 Ry     beta= 0.05
     Davidson diagonalization with overlap
     c_bands:  1 eigenvalues not converged
     c_bands:  2 eigenvalues not converged
     c_bands:  1 eigenvalues not converged
     c_bands:  2 eigenvalues not converged
     c_bands:  1 eigenvalues not converged
     c_bands:  1 eigenvalues not converged
     c_bands:  1 eigenvalues not converged
     c_bands:  1 eigenvalues not converged
     c_bands:  1 eigenvalues not converged
     ethr =  2.40E-06,  avg # of iterations = 16.4

     negative rho (up, down):  1.260E-02 1.290E-02
 
     Adding external electric field

     Computed dipole along edir(3) : 
        Dipole                0.3324 Ry au,          0.8448 Debye
        Dipole field          0.0006 Ry au, 
 
        Potential amp.       -0.0581 Ry
        Total length         46.3494 bohr
 
 
     Adding external electric field

     Computed dipole along edir(3) : 
        Dipole                0.3324 Ry au,          0.8448 Debye
        Dipole field          0.0006 Ry au, 
 
        Potential amp.       -0.0581 Ry
        Total length         46.3494 bohr
 

     total cpu time spent up to now is      998.4 secs

     total energy              =   -3346.39605731 Ry
     estimated scf accuracy    <       0.01644517 Ry

     total magnetization       =     1.12 Bohr mag/cell
     absolute magnetization    =     1.28 Bohr mag/cell

     iteration # 37     ecut=    36.75 Ry     beta= 0.05
     Davidson diagonalization with overlap
     ethr =  2.40E-06,  avg # of iterations =  5.8

     negative rho (up, down):  1.295E-02 1.331E-02
 
     Adding external electric field

     Computed dipole along edir(3) : 
        Dipole                0.4362 Ry au,          1.1088 Debye
        Dipole field          0.0008 Ry au, 
 
        Potential amp.       -0.0763 Ry
        Total length         46.3494 bohr
 
 
     Adding external electric field

     Computed dipole along edir(3) : 
        Dipole                0.4362 Ry au,          1.1088 Debye
        Dipole field          0.0008 Ry au, 
 
        Potential amp.       -0.0763 Ry
        Total length         46.3494 bohr
 

     total cpu time spent up to now is     1023.9 secs

     total energy              =   -3346.39506370 Ry
     estimated scf accuracy    <       0.01197966 Ry

     total magnetization       =     1.12 Bohr mag/cell
     absolute magnetization    =     1.28 Bohr mag/cell

     iteration # 38     ecut=    36.75 Ry     beta= 0.05
     Davidson diagonalization with overlap
     ethr =  2.40E-06,  avg # of iterations =  6.7

     negative rho (up, down):  1.347E-02 1.385E-02
 
     Adding external electric field

     Computed dipole along edir(3) : 
        Dipole                0.4027 Ry au,          1.0237 Debye
        Dipole field          0.0008 Ry au, 
 
        Potential amp.       -0.0705 Ry
        Total length         46.3494 bohr
 
 
     Adding external electric field

     Computed dipole along edir(3) : 
        Dipole                0.4027 Ry au,          1.0237 Debye
        Dipole field          0.0008 Ry au, 
 
        Potential amp.       -0.0705 Ry
        Total length         46.3494 bohr
 

     total cpu time spent up to now is     1051.4 secs

     total energy              =   -3346.39663881 Ry
     estimated scf accuracy    <       0.01739982 Ry

     total magnetization       =     1.03 Bohr mag/cell
     absolute magnetization    =     1.21 Bohr mag/cell

     iteration # 39     ecut=    36.75 Ry     beta= 0.05
     Davidson diagonalization with overlap
     ethr =  2.40E-06,  avg # of iterations =  1.9

     negative rho (up, down):  1.212E-02 1.239E-02
 
     Adding external electric field

     Computed dipole along edir(3) : 
        Dipole                0.3228 Ry au,          0.8205 Debye
        Dipole field          0.0006 Ry au, 
 
        Potential amp.       -0.0565 Ry
        Total length         46.3494 bohr
 
 
     Adding external electric field

     Computed dipole along edir(3) : 
        Dipole                0.3228 Ry au,          0.8205 Debye
        Dipole field          0.0006 Ry au, 
 
        Potential amp.       -0.0565 Ry
        Total length         46.3494 bohr
 

     total cpu time spent up to now is     1071.3 secs

     total energy              =   -3346.39651294 Ry
     estimated scf accuracy    <       0.00238181 Ry

     total magnetization       =     1.12 Bohr mag/cell
     absolute magnetization    =     1.26 Bohr mag/cell

     iteration # 40     ecut=    36.75 Ry     beta= 0.05
     Davidson diagonalization with overlap
     c_bands:  1 eigenvalues not converged
     c_bands:  1 eigenvalues not converged
     ethr =  6.03E-07,  avg # of iterations =  9.2

     negative rho (up, down):  1.175E-02 1.198E-02
 
     Adding external electric field

     Computed dipole along edir(3) : 
        Dipole                0.3184 Ry au,          0.8092 Debye
        Dipole field          0.0006 Ry au, 
 
        Potential amp.       -0.0557 Ry
        Total length         46.3494 bohr
 
 
     Adding external electric field

     Computed dipole along edir(3) : 
        Dipole                0.3184 Ry au,          0.8092 Debye
        Dipole field          0.0006 Ry au, 
 
        Potential amp.       -0.0557 Ry
        Total length         46.3494 bohr
 

     total cpu time spent up to now is     1102.2 secs

     total energy              =   -3346.39696151 Ry
     estimated scf accuracy    <       0.00498861 Ry

     total magnetization       =     1.12 Bohr mag/cell
     absolute magnetization    =     1.27 Bohr mag/cell

     iteration # 41     ecut=    36.75 Ry     beta= 0.05
     Davidson diagonalization with overlap
     ethr =  6.03E-07,  avg # of iterations =  5.0

     negative rho (up, down):  1.180E-02 1.202E-02
 
     Adding external electric field

     Computed dipole along edir(3) : 
        Dipole                0.3209 Ry au,          0.8158 Debye
        Dipole field          0.0006 Ry au, 
 
        Potential amp.       -0.0561 Ry
        Total length         46.3494 bohr
 
 
     Adding external electric field

     Computed dipole along edir(3) : 
        Dipole                0.3209 Ry au,          0.8158 Debye
        Dipole field          0.0006 Ry au, 
 
        Potential amp.       -0.0561 Ry
        Total length         46.3494 bohr
 

     total cpu time spent up to now is     1123.8 secs

     total energy              =   -3346.39703011 Ry
     estimated scf accuracy    <       0.00222985 Ry

     total magnetization       =     1.12 Bohr mag/cell
     absolute magnetization    =     1.27 Bohr mag/cell

     iteration # 42     ecut=    36.75 Ry     beta= 0.05
     Davidson diagonalization with overlap
     c_bands:  1 eigenvalues not converged
     ethr =  5.65E-07,  avg # of iterations =  6.2

     negative rho (up, down):  1.178E-02 1.199E-02
 
     Adding external electric field

     Computed dipole along edir(3) : 
        Dipole                0.3340 Ry au,          0.8491 Debye
        Dipole field          0.0006 Ry au, 
 
        Potential amp.       -0.0584 Ry
        Total length         46.3494 bohr
 
 
     Adding external electric field

     Computed dipole along edir(3) : 
        Dipole                0.3340 Ry au,          0.8491 Debye
        Dipole field          0.0006 Ry au, 
 
        Potential amp.       -0.0584 Ry
        Total length         46.3494 bohr
 

     total cpu time spent up to now is     1149.6 secs

     total energy              =   -3346.39721771 Ry
     estimated scf accuracy    <       0.00185524 Ry

     total magnetization       =     1.12 Bohr mag/cell
     absolute magnetization    =     1.28 Bohr mag/cell

     iteration # 43     ecut=    36.75 Ry     beta= 0.05
     Davidson diagonalization with overlap
     ethr =  4.70E-07,  avg # of iterations =  3.2

     negative rho (up, down):  1.165E-02 1.184E-02
 
     Adding external electric field

     Computed dipole along edir(3) : 
        Dipole                0.3461 Ry au,          0.8796 Debye
        Dipole field          0.0007 Ry au, 
 
        Potential amp.       -0.0605 Ry
        Total length         46.3494 bohr
 
 
     Adding external electric field

     Computed dipole along edir(3) : 
        Dipole                0.3461 Ry au,          0.8796 Debye
        Dipole field          0.0007 Ry au, 
 
        Potential amp.       -0.0605 Ry
        Total length         46.3494 bohr
 

     total cpu time spent up to now is     1175.3 secs

     total energy              =   -3346.39719579 Ry
     estimated scf accuracy    <       0.00107161 Ry

     total magnetization       =     1.12 Bohr mag/cell
     absolute magnetization    =     1.27 Bohr mag/cell

     iteration # 44     ecut=    36.75 Ry     beta= 0.05
     Davidson diagonalization with overlap
     ethr =  2.71E-07,  avg # of iterations =  4.8

     negative rho (up, down):  1.161E-02 1.180E-02
 
     Adding external electric field

     Computed dipole along edir(3) : 
        Dipole                0.3449 Ry au,          0.8766 Debye
        Dipole field          0.0007 Ry au, 
 
        Potential amp.       -0.0603 Ry
        Total length         46.3494 bohr
 
 
     Adding external electric field

     Computed dipole along edir(3) : 
        Dipole                0.3449 Ry au,          0.8766 Debye
        Dipole field          0.0007 Ry au, 
 
        Potential amp.       -0.0603 Ry
        Total length         46.3494 bohr
 

     total cpu time spent up to now is     1196.7 secs

     total energy              =   -3346.39725551 Ry
     estimated scf accuracy    <       0.00024862 Ry

     total magnetization       =     1.10 Bohr mag/cell
     absolute magnetization    =     1.26 Bohr mag/cell

     iteration # 45     ecut=    36.75 Ry     beta= 0.05
     Davidson diagonalization with overlap
     ethr =  6.29E-08,  avg # of iterations =  2.3

     negative rho (up, down):  1.138E-02 1.154E-02
 
     Adding external electric field

     Computed dipole along edir(3) : 
        Dipole                0.3377 Ry au,          0.8583 Debye
        Dipole field          0.0006 Ry au, 
 
        Potential amp.       -0.0591 Ry
        Total length         46.3494 bohr
 
 
     Adding external electric field

     Computed dipole along edir(3) : 
        Dipole                0.3377 Ry au,          0.8583 Debye
        Dipole field          0.0006 Ry au, 
 
        Potential amp.       -0.0591 Ry
        Total length         46.3494 bohr
 

     total cpu time spent up to now is     1216.5 secs

     total energy              =   -3346.39727398 Ry
     estimated scf accuracy    <       0.00017476 Ry

     total magnetization       =     1.10 Bohr mag/cell
     absolute magnetization    =     1.26 Bohr mag/cell

     iteration # 46     ecut=    36.75 Ry     beta= 0.05
     Davidson diagonalization with overlap
     ethr =  4.42E-08,  avg # of iterations =  6.1

     negative rho (up, down):  1.104E-02 1.117E-02
 
     Adding external electric field

     Computed dipole along edir(3) : 
        Dipole                0.3328 Ry au,          0.8459 Debye
        Dipole field          0.0006 Ry au, 
 
        Potential amp.       -0.0582 Ry
        Total length         46.3494 bohr
 
 
     Adding external electric field

     Computed dipole along edir(3) : 
        Dipole                0.3328 Ry au,          0.8459 Debye
        Dipole field          0.0006 Ry au, 
 
        Potential amp.       -0.0582 Ry
        Total length         46.3494 bohr
 

     total cpu time spent up to now is     1241.9 secs

     total energy              =   -3346.39730066 Ry
     estimated scf accuracy    <       0.00026584 Ry

     total magnetization       =     1.11 Bohr mag/cell
     absolute magnetization    =     1.27 Bohr mag/cell

     iteration # 47     ecut=    36.75 Ry     beta= 0.05
     Davidson diagonalization with overlap
     ethr =  4.42E-08,  avg # of iterations =  5.8

     negative rho (up, down):  1.101E-02 1.114E-02
 
     Adding external electric field

     Computed dipole along edir(3) : 
        Dipole                0.3259 Ry au,          0.8283 Debye
        Dipole field          0.0006 Ry au, 
 
        Potential amp.       -0.0570 Ry
        Total length         46.3494 bohr
 
 
     Adding external electric field

     Computed dipole along edir(3) : 
        Dipole                0.3259 Ry au,          0.8283 Debye
        Dipole field          0.0006 Ry au, 
 
        Potential amp.       -0.0570 Ry
        Total length         46.3494 bohr
 

     total cpu time spent up to now is     1266.0 secs

     total energy              =   -3346.39729336 Ry
     estimated scf accuracy    <       0.00144007 Ry

     total magnetization       =     1.08 Bohr mag/cell
     absolute magnetization    =     1.26 Bohr mag/cell

     iteration # 48     ecut=    36.75 Ry     beta= 0.05
     Davidson diagonalization with overlap
     ethr =  4.42E-08,  avg # of iterations =  1.6

     negative rho (up, down):  1.097E-02 1.109E-02
 
     Adding external electric field

     Computed dipole along edir(3) : 
        Dipole                0.3218 Ry au,          0.8179 Debye
        Dipole field          0.0006 Ry au, 
 
        Potential amp.       -0.0563 Ry
        Total length         46.3494 bohr
 
 
     Adding external electric field

     Computed dipole along edir(3) : 
        Dipole                0.3218 Ry au,          0.8179 Debye
        Dipole field          0.0006 Ry au, 
 
        Potential amp.       -0.0563 Ry
        Total length         46.3494 bohr
 

     total cpu time spent up to now is     1284.2 secs

     total energy              =   -3346.39732648 Ry
     estimated scf accuracy    <       0.00006859 Ry

     total magnetization       =     1.11 Bohr mag/cell
     absolute magnetization    =     1.27 Bohr mag/cell

     iteration # 49     ecut=    36.75 Ry     beta= 0.05
     Davidson diagonalization with overlap
     ethr =  1.74E-08,  avg # of iterations =  1.6

     negative rho (up, down):  1.086E-02 1.096E-02
 
     Adding external electric field

     Computed dipole along edir(3) : 
        Dipole                0.3246 Ry au,          0.8252 Debye
        Dipole field          0.0006 Ry au, 
 
        Potential amp.       -0.0568 Ry
        Total length         46.3494 bohr
 
 
     Adding external electric field

     Computed dipole along edir(3) : 
        Dipole                0.3246 Ry au,          0.8252 Debye
        Dipole field          0.0006 Ry au, 
 
        Potential amp.       -0.0568 Ry
        Total length         46.3494 bohr
 

     total cpu time spent up to now is     1302.5 secs

     total energy              =   -3346.39734772 Ry
     estimated scf accuracy    <       0.00018863 Ry

     total magnetization       =     1.11 Bohr mag/cell
     absolute magnetization    =     1.27 Bohr mag/cell

     iteration # 50     ecut=    36.75 Ry     beta= 0.05
     Davidson diagonalization with overlap
     ethr =  1.74E-08,  avg # of iterations =  5.8

     negative rho (up, down):  1.086E-02 1.096E-02
 
     Adding external electric field

     Computed dipole along edir(3) : 
        Dipole                0.3247 Ry au,          0.8254 Debye
        Dipole field          0.0006 Ry au, 
 
        Potential amp.       -0.0568 Ry
        Total length         46.3494 bohr
 
 
     Adding external electric field

     Computed dipole along edir(3) : 
        Dipole                0.3247 Ry au,          0.8254 Debye
        Dipole field          0.0006 Ry au, 
 
        Potential amp.       -0.0568 Ry
        Total length         46.3494 bohr
 

     total cpu time spent up to now is     1324.7 secs

     total energy              =   -3346.39736887 Ry
     estimated scf accuracy    <       0.00021190 Ry

     total magnetization       =     1.09 Bohr mag/cell
     absolute magnetization    =     1.27 Bohr mag/cell

     iteration # 51     ecut=    36.75 Ry     beta= 0.05
     Davidson diagonalization with overlap
     ethr =  1.74E-08,  avg # of iterations =  1.5

     negative rho (up, down):  1.088E-02 1.097E-02
 
     Adding external electric field

     Computed dipole along edir(3) : 
        Dipole                0.3249 Ry au,          0.8257 Debye
        Dipole field          0.0006 Ry au, 
 
        Potential amp.       -0.0568 Ry
        Total length         46.3494 bohr
 
 
     Adding external electric field

     Computed dipole along edir(3) : 
        Dipole                0.3249 Ry au,          0.8257 Debye
        Dipole field          0.0006 Ry au, 
 
        Potential amp.       -0.0568 Ry
        Total length         46.3494 bohr
 

     total cpu time spent up to now is     1342.9 secs

     total energy              =   -3346.39736797 Ry
     estimated scf accuracy    <       0.00006342 Ry

     total magnetization       =     1.10 Bohr mag/cell
     absolute magnetization    =     1.27 Bohr mag/cell

     iteration # 52     ecut=    36.75 Ry     beta= 0.05
     Davidson diagonalization with overlap
     ethr =  1.61E-08,  avg # of iterations =  3.3

     negative rho (up, down):  1.083E-02 1.092E-02
 
     Adding external electric field

     Computed dipole along edir(3) : 
        Dipole                0.3241 Ry au,          0.8239 Debye
        Dipole field          0.0006 Ry au, 
 
        Potential amp.       -0.0567 Ry
        Total length         46.3494 bohr
 
 
     Adding external electric field

     Computed dipole along edir(3) : 
        Dipole                0.3241 Ry au,          0.8239 Debye
        Dipole field          0.0006 Ry au, 
 
        Potential amp.       -0.0567 Ry
        Total length         46.3494 bohr
 

     total cpu time spent up to now is     1363.0 secs

     total energy              =   -3346.39737612 Ry
     estimated scf accuracy    <       0.00002511 Ry

     total magnetization       =     1.11 Bohr mag/cell
     absolute magnetization    =     1.27 Bohr mag/cell

     iteration # 53     ecut=    36.75 Ry     beta= 0.05
     Davidson diagonalization with overlap
     ethr =  6.36E-09,  avg # of iterations =  4.5

     negative rho (up, down):  1.082E-02 1.089E-02
 
     Adding external electric field

     Computed dipole along edir(3) : 
        Dipole                0.3238 Ry au,          0.8230 Debye
        Dipole field          0.0006 Ry au, 
 
        Potential amp.       -0.0566 Ry
        Total length         46.3494 bohr
 
 
     Adding external electric field

     Computed dipole along edir(3) : 
        Dipole                0.3238 Ry au,          0.8230 Debye
        Dipole field          0.0006 Ry au, 
 
        Potential amp.       -0.0566 Ry
        Total length         46.3494 bohr
 

     total cpu time spent up to now is     1383.5 secs

     total energy              =   -3346.39737815 Ry
     estimated scf accuracy    <       0.00000894 Ry

     total magnetization       =     1.11 Bohr mag/cell
     absolute magnetization    =     1.27 Bohr mag/cell

     iteration # 54     ecut=    36.75 Ry     beta= 0.05
     Davidson diagonalization with overlap
     ethr =  2.26E-09,  avg # of iterations =  4.9

     negative rho (up, down):  1.081E-02 1.089E-02
 
     Adding external electric field

     Computed dipole along edir(3) : 
        Dipole                0.3239 Ry au,          0.8232 Debye
        Dipole field          0.0006 Ry au, 
 
        Potential amp.       -0.0567 Ry
        Total length         46.3494 bohr
 
 
     Adding external electric field

     Computed dipole along edir(3) : 
        Dipole                0.3239 Ry au,          0.8232 Debye
        Dipole field          0.0006 Ry au, 
 
        Potential amp.       -0.0567 Ry
        Total length         46.3494 bohr
 

     total cpu time spent up to now is     1405.8 secs

     total energy              =   -3346.39737982 Ry
     estimated scf accuracy    <       0.00000467 Ry

     total magnetization       =     1.10 Bohr mag/cell
     absolute magnetization    =     1.27 Bohr mag/cell

     iteration # 55     ecut=    36.75 Ry     beta= 0.05
     Davidson diagonalization with overlap
     ethr =  1.18E-09,  avg # of iterations =  5.5

     negative rho (up, down):  1.083E-02 1.090E-02
 
     Adding external electric field

     Computed dipole along edir(3) : 
        Dipole                0.3247 Ry au,          0.8252 Debye
        Dipole field          0.0006 Ry au, 
 
        Potential amp.       -0.0568 Ry
        Total length         46.3494 bohr
 
 
     Adding external electric field

     Computed dipole along edir(3) : 
        Dipole                0.3247 Ry au,          0.8252 Debye
        Dipole field          0.0006 Ry au, 
 
        Potential amp.       -0.0568 Ry
        Total length         46.3494 bohr
 

     total cpu time spent up to now is     1428.4 secs

     total energy              =   -3346.39738169 Ry
     estimated scf accuracy    <       0.00000359 Ry

     total magnetization       =     1.10 Bohr mag/cell
     absolute magnetization    =     1.27 Bohr mag/cell

     iteration # 56     ecut=    36.75 Ry     beta= 0.05
     Davidson diagonalization with overlap
     ethr =  9.08E-10,  avg # of iterations =  6.0

     negative rho (up, down):  1.083E-02 1.090E-02
 
     Adding external electric field

     Computed dipole along edir(3) : 
        Dipole                0.3253 Ry au,          0.8269 Debye
        Dipole field          0.0006 Ry au, 
 
        Potential amp.       -0.0569 Ry
        Total length         46.3494 bohr
 
 
     Adding external electric field

     Computed dipole along edir(3) : 
        Dipole                0.3253 Ry au,          0.8269 Debye
        Dipole field          0.0006 Ry au, 
 
        Potential amp.       -0.0569 Ry
        Total length         46.3494 bohr
 

     total cpu time spent up to now is     1462.7 secs

     total energy              =   -3346.39738320 Ry
     estimated scf accuracy    <       0.00001125 Ry

     total magnetization       =     1.11 Bohr mag/cell
     absolute magnetization    =     1.28 Bohr mag/cell

     iteration # 57     ecut=    36.75 Ry     beta= 0.05
     Davidson diagonalization with overlap
     ethr =  9.08E-10,  avg # of iterations =  4.5

     negative rho (up, down):  1.084E-02 1.091E-02
 
     Adding external electric field

     Computed dipole along edir(3) : 
        Dipole                0.3262 Ry au,          0.8292 Debye
        Dipole field          0.0006 Ry au, 
 
        Potential amp.       -0.0571 Ry
        Total length         46.3494 bohr
 
 
     Adding external electric field

     Computed dipole along edir(3) : 
        Dipole                0.3262 Ry au,          0.8292 Debye
        Dipole field          0.0006 Ry au, 
 
        Potential amp.       -0.0571 Ry
        Total length         46.3494 bohr
 

     total cpu time spent up to now is     1485.9 secs

     total energy              =   -3346.39738421 Ry
     estimated scf accuracy    <       0.00000398 Ry

     total magnetization       =     1.11 Bohr mag/cell
     absolute magnetization    =     1.28 Bohr mag/cell

     iteration # 58     ecut=    36.75 Ry     beta= 0.05
     Davidson diagonalization with overlap
     ethr =  9.08E-10,  avg # of iterations =  5.4

     negative rho (up, down):  1.084E-02 1.090E-02
 
     Adding external electric field

     Computed dipole along edir(3) : 
        Dipole                0.3267 Ry au,          0.8304 Debye
        Dipole field          0.0006 Ry au, 
 
        Potential amp.       -0.0571 Ry
        Total length         46.3494 bohr
 
 
     Adding external electric field

     Computed dipole along edir(3) : 
        Dipole                0.3267 Ry au,          0.8304 Debye
        Dipole field          0.0006 Ry au, 
 
        Potential amp.       -0.0571 Ry
        Total length         46.3494 bohr
 

     total cpu time spent up to now is     1509.3 secs

     total energy              =   -3346.39738550 Ry
     estimated scf accuracy    <       0.00000144 Ry

     total magnetization       =     1.10 Bohr mag/cell
     absolute magnetization    =     1.28 Bohr mag/cell

     iteration # 59     ecut=    36.75 Ry     beta= 0.05
     Davidson diagonalization with overlap
     ethr =  3.64E-10,  avg # of iterations =  5.9

     negative rho (up, down):  1.083E-02 1.090E-02
 
     Adding external electric field

     Computed dipole along edir(3) : 
        Dipole                0.3266 Ry au,          0.8300 Debye
        Dipole field          0.0006 Ry au, 
 
        Potential amp.       -0.0571 Ry
        Total length         46.3494 bohr
 
 
     Adding external electric field

     Computed dipole along edir(3) : 
        Dipole                0.3266 Ry au,          0.8300 Debye
        Dipole field          0.0006 Ry au, 
 
        Potential amp.       -0.0571 Ry
        Total length         46.3494 bohr
 

     total cpu time spent up to now is     1532.5 secs

     total energy              =   -3346.39738626 Ry
     estimated scf accuracy    <       0.00000104 Ry

     total magnetization       =     1.10 Bohr mag/cell
     absolute magnetization    =     1.28 Bohr mag/cell

     iteration # 60     ecut=    36.75 Ry     beta= 0.05
     Davidson diagonalization with overlap
     ethr =  2.63E-10,  avg # of iterations =  5.0

     negative rho (up, down):  1.082E-02 1.088E-02
 
     Adding external electric field

     Computed dipole along edir(3) : 
        Dipole                0.3265 Ry au,          0.8299 Debye
        Dipole field          0.0006 Ry au, 
 
        Potential amp.       -0.0571 Ry
        Total length         46.3494 bohr
 
 
     Adding external electric field

     Computed dipole along edir(3) : 
        Dipole                0.3265 Ry au,          0.8299 Debye
        Dipole field          0.0006 Ry au, 
 
        Potential amp.       -0.0571 Ry
        Total length         46.3494 bohr
 

     total cpu time spent up to now is     1553.4 secs

     total energy              =   -3346.39738709 Ry
     estimated scf accuracy    <       0.00000092 Ry

     total magnetization       =     1.10 Bohr mag/cell
     absolute magnetization    =     1.28 Bohr mag/cell

     iteration # 61     ecut=    36.75 Ry     beta= 0.05
     Davidson diagonalization with overlap
     ethr =  2.32E-10,  avg # of iterations =  6.4

     negative rho (up, down):  1.082E-02 1.088E-02
 
     Adding external electric field

     Computed dipole along edir(3) : 
        Dipole                0.3267 Ry au,          0.8304 Debye
        Dipole field          0.0006 Ry au, 
 
        Potential amp.       -0.0572 Ry
        Total length         46.3494 bohr
 
 
     Adding external electric field

     Computed dipole along edir(3) : 
        Dipole                0.3267 Ry au,          0.8304 Debye
        Dipole field          0.0006 Ry au, 
 
        Potential amp.       -0.0572 Ry
        Total length         46.3494 bohr
 

     total cpu time spent up to now is     1575.4 secs

     total energy              =   -3346.39738826 Ry
     estimated scf accuracy    <       0.00000066 Ry

     total magnetization       =     1.10 Bohr mag/cell
     absolute magnetization    =     1.28 Bohr mag/cell

     iteration # 62     ecut=    36.75 Ry     beta= 0.05
     Davidson diagonalization with overlap
     ethr =  1.67E-10,  avg # of iterations =  8.8

     negative rho (up, down):  1.082E-02 1.088E-02
 
     Adding external electric field

     Computed dipole along edir(3) : 
        Dipole                0.3265 Ry au,          0.8299 Debye
        Dipole field          0.0006 Ry au, 
 
        Potential amp.       -0.0571 Ry
        Total length         46.3494 bohr
 
 
     Adding external electric field

     Computed dipole along edir(3) : 
        Dipole                0.3265 Ry au,          0.8299 Debye
        Dipole field          0.0006 Ry au, 
 
        Potential amp.       -0.0571 Ry
        Total length         46.3494 bohr
 

     total cpu time spent up to now is     1601.7 secs

     total energy              =   -3346.39738900 Ry
     estimated scf accuracy    <       0.00000042 Ry

     total magnetization       =     1.10 Bohr mag/cell
     absolute magnetization    =     1.28 Bohr mag/cell

[...]
 
        Potential amp.       -0.0118 Ry
        Total length         46.3494 bohr
 

     total cpu time spent up to now is    48715.8 secs

     total energy              =   -3346.89333913 Ry
     estimated scf accuracy    <       0.00018466 Ry

     total magnetization       =     1.00 Bohr mag/cell
     absolute magnetization    =     1.19 Bohr mag/cell

     iteration # 13     ecut=    36.75 Ry     beta= 0.05
     Davidson diagonalization with overlap
     ethr =  4.06E-08,  avg # of iterations =  5.0

     negative rho (up, down):  1.257E-02 1.262E-02
 
     Adding external electric field

     Computed dipole along edir(3) : 
        Dipole                0.0853 Ry au,          0.2169 Debye
        Dipole field          0.0002 Ry au, 
 
        Potential amp.       -0.0149 Ry
        Total length         46.3494 bohr
 
 
     Adding external electric field

     Computed dipole along edir(3) : 
        Dipole                0.0853 Ry au,          0.2169 Debye
        Dipole field          0.0002 Ry au, 
 
        Potential amp.       -0.0149 Ry
        Total length         46.3494 bohr
 

     total cpu time spent up to now is    48752.7 secs

     total energy              =   -3346.89339231 Ry
     estimated scf accuracy    <       0.00037257 Ry

     total magnetization       =     1.00 Bohr mag/cell
     absolute magnetization    =     1.19 Bohr mag/cell

     iteration # 14     ecut=    36.75 Ry     beta= 0.05
     Davidson diagonalization with overlap
     ethr =  4.06E-08,  avg # of iterations =  5.9

     negative rho (up, down):  1.239E-02 1.245E-02
 
     Adding external electric field

     Computed dipole along edir(3) : 
        Dipole                0.0813 Ry au,          0.2067 Debye
        Dipole field          0.0002 Ry au, 
 
        Potential amp.       -0.0142 Ry
        Total length         46.3494 bohr
 
 
     Adding external electric field

     Computed dipole along edir(3) : 
        Dipole                0.0813 Ry au,          0.2067 Debye
        Dipole field          0.0002 Ry au, 
 
        Potential amp.       -0.0142 Ry
        Total length         46.3494 bohr
 

     total cpu time spent up to now is    48793.9 secs

     total energy              =   -3346.89346675 Ry
     estimated scf accuracy    <       0.00132809 Ry

     total magnetization       =     1.00 Bohr mag/cell
     absolute magnetization    =     1.19 Bohr mag/cell

     iteration # 15     ecut=    36.75 Ry     beta= 0.05
     Davidson diagonalization with overlap
     ethr =  4.06E-08,  avg # of iterations =  1.6

     negative rho (up, down):  1.222E-02 1.228E-02
 
     Adding external electric field

     Computed dipole along edir(3) : 
        Dipole                0.0798 Ry au,          0.2029 Debye
        Dipole field          0.0002 Ry au, 
 
        Potential amp.       -0.0140 Ry
        Total length         46.3494 bohr
 
 
     Adding external electric field

     Computed dipole along edir(3) : 
        Dipole                0.0798 Ry au,          0.2029 Debye
        Dipole field          0.0002 Ry au, 
 
        Potential amp.       -0.0140 Ry
        Total length         46.3494 bohr
 

     total cpu time spent up to now is    48812.2 secs

     total energy              =   -3346.89337392 Ry
     estimated scf accuracy    <       0.00101571 Ry

     total magnetization       =     1.00 Bohr mag/cell
     absolute magnetization    =     1.19 Bohr mag/cell

     iteration # 16     ecut=    36.75 Ry     beta= 0.05
     Davidson diagonalization with overlap
     ethr =  4.06E-08,  avg # of iterations =  3.3

     negative rho (up, down):  1.207E-02 1.212E-02
 
     Adding external electric field

     Computed dipole along edir(3) : 
        Dipole                0.0842 Ry au,          0.2141 Debye
        Dipole field          0.0002 Ry au, 
 
        Potential amp.       -0.0147 Ry
        Total length         46.3494 bohr
 
 
     Adding external electric field

     Computed dipole along edir(3) : 
        Dipole                0.0842 Ry au,          0.2141 Debye
        Dipole field          0.0002 Ry au, 
 
        Potential amp.       -0.0147 Ry
        Total length         46.3494 bohr
 

     total cpu time spent up to now is    48865.4 secs

     total energy              =   -3346.89342489 Ry
     estimated scf accuracy    <       0.00043838 Ry

     total magnetization       =     1.00 Bohr mag/cell
     absolute magnetization    =     1.19 Bohr mag/cell

     iteration # 17     ecut=    36.75 Ry     beta= 0.05
     Davidson diagonalization with overlap
     ethr =  4.06E-08,  avg # of iterations =  1.4

     negative rho (up, down):  1.191E-02 1.197E-02
 
     Adding external electric field

     Computed dipole along edir(3) : 
        Dipole                0.0826 Ry au,          0.2099 Debye
        Dipole field          0.0002 Ry au, 
 
        Potential amp.       -0.0144 Ry
        Total length         46.3494 bohr
 
 
     Adding external electric field

     Computed dipole along edir(3) : 
        Dipole                0.0826 Ry au,          0.2099 Debye
        Dipole field          0.0002 Ry au, 
 
        Potential amp.       -0.0144 Ry
        Total length         46.3494 bohr
 

     total cpu time spent up to now is    48883.4 secs

     total energy              =   -3346.89339985 Ry
     estimated scf accuracy    <       0.00052165 Ry

     total magnetization       =     1.00 Bohr mag/cell
     absolute magnetization    =     1.19 Bohr mag/cell

     iteration # 18     ecut=    36.75 Ry     beta= 0.05
     Davidson diagonalization with overlap
     ethr =  4.06E-08,  avg # of iterations =  2.0

     negative rho (up, down):  1.176E-02 1.182E-02
 
     Adding external electric field

     Computed dipole along edir(3) : 
        Dipole                0.0784 Ry au,          0.1993 Debye
        Dipole field          0.0001 Ry au, 
 
        Potential amp.       -0.0137 Ry
        Total length         46.3494 bohr
 
 
     Adding external electric field

     Computed dipole along edir(3) : 
        Dipole                0.0784 Ry au,          0.1993 Debye
        Dipole field          0.0001 Ry au, 
 
        Potential amp.       -0.0137 Ry
        Total length         46.3494 bohr
 

     total cpu time spent up to now is    48923.5 secs

     total energy              =   -3346.89330660 Ry
     estimated scf accuracy    <       0.00041242 Ry

     total magnetization       =     1.00 Bohr mag/cell
     absolute magnetization    =     1.19 Bohr mag/cell

     iteration # 19     ecut=    36.75 Ry     beta= 0.05
     Davidson diagonalization with overlap
     ethr =  4.06E-08,  avg # of iterations =  5.0

     negative rho (up, down):  1.164E-02 1.169E-02
 
     Adding external electric field

     Computed dipole along edir(3) : 
        Dipole                0.0739 Ry au,          0.1879 Debye
        Dipole field          0.0001 Ry au, 
 
        Potential amp.       -0.0129 Ry
        Total length         46.3494 bohr
 
 
     Adding external electric field

     Computed dipole along edir(3) : 
        Dipole                0.0739 Ry au,          0.1879 Debye
        Dipole field          0.0001 Ry au, 
 
        Potential amp.       -0.0129 Ry
        Total length         46.3494 bohr
 

     total cpu time spent up to now is    48982.2 secs

     total energy              =   -3346.89334640 Ry
     estimated scf accuracy    <       0.00003991 Ry

     total magnetization       =     1.00 Bohr mag/cell
     absolute magnetization    =     1.19 Bohr mag/cell

     iteration # 20     ecut=    36.75 Ry     beta= 0.05
     Davidson diagonalization with overlap
     ethr =  1.01E-08,  avg # of iterations =  5.0

     negative rho (up, down):  1.158E-02 1.162E-02
 
     Adding external electric field

     Computed dipole along edir(3) : 
        Dipole                0.0741 Ry au,          0.1882 Debye
        Dipole field          0.0001 Ry au, 
 
        Potential amp.       -0.0130 Ry
        Total length         46.3494 bohr
 
 
     Adding external electric field

     Computed dipole along edir(3) : 
        Dipole                0.0741 Ry au,          0.1882 Debye
        Dipole field          0.0001 Ry au, 
 
        Potential amp.       -0.0130 Ry
        Total length         46.3494 bohr
 

     total cpu time spent up to now is    49059.9 secs

     total energy              =   -3346.89335871 Ry
     estimated scf accuracy    <       0.00001640 Ry

     total magnetization       =     1.00 Bohr mag/cell
     absolute magnetization    =     1.19 Bohr mag/cell

     iteration # 21     ecut=    36.75 Ry     beta= 0.05
     Davidson diagonalization with overlap
     ethr =  4.15E-09,  avg # of iterations =  5.0

     negative rho (up, down):  1.151E-02 1.154E-02
 
     Adding external electric field

     Computed dipole along edir(3) : 
        Dipole                0.0731 Ry au,          0.1858 Debye
        Dipole field          0.0001 Ry au, 
 
        Potential amp.       -0.0128 Ry
        Total length         46.3494 bohr
 
 
     Adding external electric field

     Computed dipole along edir(3) : 
        Dipole                0.0731 Ry au,          0.1858 Debye
        Dipole field          0.0001 Ry au, 
 
        Potential amp.       -0.0128 Ry
        Total length         46.3494 bohr
 

     total cpu time spent up to now is    49097.2 secs

     total energy              =   -3346.89336381 Ry
     estimated scf accuracy    <       0.00002172 Ry

     total magnetization       =     1.00 Bohr mag/cell
     absolute magnetization    =     1.19 Bohr mag/cell

     iteration # 22     ecut=    36.75 Ry     beta= 0.05
     Davidson diagonalization with overlap
     ethr =  4.15E-09,  avg # of iterations =  2.0

     negative rho (up, down):  1.141E-02 1.144E-02
 
     Adding external electric field

     Computed dipole along edir(3) : 
        Dipole                0.0741 Ry au,          0.1884 Debye
        Dipole field          0.0001 Ry au, 
 
        Potential amp.       -0.0130 Ry
        Total length         46.3494 bohr
 
 
     Adding external electric field

     Computed dipole along edir(3) : 
        Dipole                0.0741 Ry au,          0.1884 Debye
        Dipole field          0.0001 Ry au, 
 
        Potential amp.       -0.0130 Ry
        Total length         46.3494 bohr
 

     total cpu time spent up to now is    49116.6 secs

     total energy              =   -3346.89336274 Ry
     estimated scf accuracy    <       0.00002108 Ry

     total magnetization       =     1.00 Bohr mag/cell
     absolute magnetization    =     1.19 Bohr mag/cell

     iteration # 23     ecut=    36.75 Ry     beta= 0.05
     Davidson diagonalization with overlap
     ethr =  4.15E-09,  avg # of iterations =  5.0

     negative rho (up, down):  1.132E-02 1.135E-02
 
     Adding external electric field

     Computed dipole along edir(3) : 
        Dipole                0.0746 Ry au,          0.1895 Debye
        Dipole field          0.0001 Ry au, 
 
        Potential amp.       -0.0130 Ry
        Total length         46.3494 bohr
 
 
     Adding external electric field

     Computed dipole along edir(3) : 
        Dipole                0.0746 Ry au,          0.1895 Debye
        Dipole field          0.0001 Ry au, 
 
        Potential amp.       -0.0130 Ry
        Total length         46.3494 bohr
 

     total cpu time spent up to now is    49157.0 secs

     total energy              =   -3346.89336570 Ry
     estimated scf accuracy    <       0.00000592 Ry

     total magnetization       =     1.00 Bohr mag/cell
     absolute magnetization    =     1.19 Bohr mag/cell

     iteration # 24     ecut=    36.75 Ry     beta= 0.05
     Davidson diagonalization with overlap
     ethr =  1.50E-09,  avg # of iterations =  4.1

     negative rho (up, down):  1.124E-02 1.126E-02
 
     Adding external electric field

     Computed dipole along edir(3) : 
        Dipole                0.0750 Ry au,          0.1906 Debye
        Dipole field          0.0001 Ry au, 
 
        Potential amp.       -0.0131 Ry
        Total length         46.3494 bohr
 
 
     Adding external electric field

     Computed dipole along edir(3) : 
        Dipole                0.0750 Ry au,          0.1906 Debye
        Dipole field          0.0001 Ry au, 
 
        Potential amp.       -0.0131 Ry
        Total length         46.3494 bohr
 

     total cpu time spent up to now is    49195.8 secs

     total energy              =   -3346.89336741 Ry
     estimated scf accuracy    <       0.00000235 Ry

     total magnetization       =     1.00 Bohr mag/cell
     absolute magnetization    =     1.19 Bohr mag/cell

     iteration # 25     ecut=    36.75 Ry     beta= 0.05
     Davidson diagonalization with overlap
     ethr =  5.96E-10,  avg # of iterations =  4.2

     negative rho (up, down):  1.115E-02 1.118E-02
 
     Adding external electric field

     Computed dipole along edir(3) : 
        Dipole                0.0752 Ry au,          0.1911 Debye
        Dipole field          0.0001 Ry au, 
 
        Potential amp.       -0.0132 Ry
        Total length         46.3494 bohr
 
 
     Adding external electric field

     Computed dipole along edir(3) : 
        Dipole                0.0752 Ry au,          0.1911 Debye
        Dipole field          0.0001 Ry au, 
 
        Potential amp.       -0.0132 Ry
        Total length         46.3494 bohr
 

     total cpu time spent up to now is    49227.1 secs

     total energy              =   -3346.89336986 Ry
     estimated scf accuracy    <       0.00000112 Ry

     total magnetization       =     1.00 Bohr mag/cell
     absolute magnetization    =     1.19 Bohr mag/cell

     iteration # 26     ecut=    36.75 Ry     beta= 0.05
     Davidson diagonalization with overlap
     ethr =  2.83E-10,  avg # of iterations =  2.9

     negative rho (up, down):  1.107E-02 1.109E-02
 
     Adding external electric field

     Computed dipole along edir(3) : 
        Dipole                0.0752 Ry au,          0.1911 Debye
        Dipole field          0.0001 Ry au, 
 
        Potential amp.       -0.0131 Ry
        Total length         46.3494 bohr
 
 
     Adding external electric field

     Computed dipole along edir(3) : 
        Dipole                0.0752 Ry au,          0.1911 Debye
        Dipole field          0.0001 Ry au, 
 
        Potential amp.       -0.0131 Ry
        Total length         46.3494 bohr
 

     total cpu time spent up to now is    49247.3 secs

     total energy              =   -3346.89337149 Ry
     estimated scf accuracy    <       0.00000072 Ry

     total magnetization       =     1.00 Bohr mag/cell
     absolute magnetization    =     1.19 Bohr mag/cell

     iteration # 27     ecut=    36.75 Ry     beta= 0.05
     Davidson diagonalization with overlap
     ethr =  1.81E-10,  avg # of iterations =  5.0

     negative rho (up, down):  1.099E-02 1.101E-02
 
     Adding external electric field

     Computed dipole along edir(3) : 
        Dipole                0.0750 Ry au,          0.1907 Debye
        Dipole field          0.0001 Ry au, 
 
        Potential amp.       -0.0131 Ry
        Total length         46.3494 bohr
 
 
     Adding external electric field

     Computed dipole along edir(3) : 
        Dipole                0.0750 Ry au,          0.1907 Debye
        Dipole field          0.0001 Ry au, 
 
        Potential amp.       -0.0131 Ry
        Total length         46.3494 bohr
 

     total cpu time spent up to now is    49291.1 secs

     total energy              =   -3346.89337319 Ry
     estimated scf accuracy    <       0.00000044 Ry

     total magnetization       =     1.00 Bohr mag/cell
     absolute magnetization    =     1.19 Bohr mag/cell

     iteration # 28     ecut=    36.75 Ry     beta= 0.05
     Davidson diagonalization with overlap
     ethr =  1.10E-10,  avg # of iterations =  5.0

     negative rho (up, down):  1.092E-02 1.094E-02
 
     Adding external electric field

     Computed dipole along edir(3) : 
        Dipole                0.0754 Ry au,          0.1918 Debye
        Dipole field          0.0001 Ry au, 
 
        Potential amp.       -0.0132 Ry
        Total length         46.3494 bohr
 
 
     Adding external electric field

     Computed dipole along edir(3) : 
        Dipole                0.0754 Ry au,          0.1918 Debye
        Dipole field          0.0001 Ry au, 
 
        Potential amp.       -0.0132 Ry
        Total length         46.3494 bohr
 

     total cpu time spent up to now is    49332.5 secs

     total energy              =   -3346.89337470 Ry
     estimated scf accuracy    <       0.00000026 Ry

     total magnetization       =     1.00 Bohr mag/cell
     absolute magnetization    =     1.19 Bohr mag/cell

     iteration # 29     ecut=    36.75 Ry     beta= 0.05
     Davidson diagonalization with overlap
     ethr =  6.69E-11,  avg # of iterations =  5.0

     negative rho (up, down):  1.085E-02 1.087E-02
 
     Adding external electric field

     Computed dipole along edir(3) : 
        Dipole                0.0752 Ry au,          0.1913 Debye
        Dipole field          0.0001 Ry au, 
 
        Potential amp.       -0.0132 Ry
        Total length         46.3494 bohr
 
 
     Adding external electric field

     Computed dipole along edir(3) : 
        Dipole                0.0752 Ry au,          0.1913 Debye
        Dipole field          0.0001 Ry au, 
 
        Potential amp.       -0.0132 Ry
        Total length         46.3494 bohr
 

     total cpu time spent up to now is    49357.6 secs

     total energy              =   -3346.89337607 Ry
     estimated scf accuracy    <       0.00000019 Ry

     total magnetization       =     1.00 Bohr mag/cell
     absolute magnetization    =     1.19 Bohr mag/cell

     iteration # 30     ecut=    36.75 Ry     beta= 0.05
     Davidson diagonalization with overlap
     ethr =  4.89E-11,  avg # of iterations =  2.5

     negative rho (up, down):  1.079E-02 1.081E-02
 
     Adding external electric field

     Computed dipole along edir(3) : 
        Dipole                0.0749 Ry au,          0.1903 Debye
        Dipole field          0.0001 Ry au, 
 
        Potential amp.       -0.0131 Ry
        Total length         46.3494 bohr
 
 
     Adding external electric field

     Computed dipole along edir(3) : 
        Dipole                0.0749 Ry au,          0.1903 Debye
        Dipole field          0.0001 Ry au, 
 
        Potential amp.       -0.0131 Ry
        Total length         46.3494 bohr
 

     total cpu time spent up to now is    49406.8 secs

     total energy              =   -3346.89337742 Ry
     estimated scf accuracy    <       0.00000010 Ry

     total magnetization       =     1.00 Bohr mag/cell
     absolute magnetization    =     1.19 Bohr mag/cell

     iteration # 31     ecut=    36.75 Ry     beta= 0.05
     Davidson diagonalization with overlap
     ethr =  2.48E-11,  avg # of iterations =  5.3

     negative rho (up, down):  1.073E-02 1.075E-02
 
     Adding external electric field

     Computed dipole along edir(3) : 
        Dipole                0.0751 Ry au,          0.1910 Debye
        Dipole field          0.0001 Ry au, 
 
        Potential amp.       -0.0131 Ry
        Total length         46.3494 bohr
 
 
     Adding external electric field

     Computed dipole along edir(3) : 
        Dipole                0.0751 Ry au,          0.1910 Debye
        Dipole field          0.0001 Ry au, 
 
        Potential amp.       -0.0131 Ry
        Total length         46.3494 bohr
 

     total cpu time spent up to now is    49447.4 secs

     total energy              =   -3346.89337854 Ry
     estimated scf accuracy    <       0.00000042 Ry

     total magnetization       =     1.00 Bohr mag/cell
     absolute magnetization    =     1.19 Bohr mag/cell

     iteration # 32     ecut=    36.75 Ry     beta= 0.05
     Davidson diagonalization with overlap
