
     Program PWSCF v.6.7GPU starts on 21Feb2022 at 12:12:18 

     This program is part of the open-source Quantum ESPRESSO suite
     for quantum simulation of materials; please cite
         "P. Giannozzi et al., J. Phys.:Condens. Matter 21 395502 (2009);
         "P. Giannozzi et al., J. Phys.:Condens. Matter 29 465901 (2017);
         "P. Giannozzi et al., J. Chem. Phys. 152 154105 (2020);
          URL http://www.quantum-espresso.org", 
     in publications or presentations arising from this work. More details at
     http://www.quantum-espresso.org/quote

     Parallel version (MPI), running on    16 processors

     MPI processes distributed on     1 nodes
     R & G space division:  proc/nbgrp/npool/nimage =      16
     Reading input from /storage/home/hcoda1/3/rxie43/pBlock/F/N/qe_4011316.sched-torque.pace.gatech.edu/pw.inp
Warning: card &CELL ignored
Warning: card   CELL_DYNAMICS='IPI', ignored
Warning: card / ignored

     Current dimensions of program PWSCF are:
     Max number of different atomic species (ntypx) = 10
     Max number of k-points (npk) =  40000
     Max angular momentum in pseudopotentials (lmaxx) =  3
     Message from routine cell_base_init:
     DEPRECATED: use true lattice parameter, not A to a.u. conversion factor
     file O.UPF: wavefunction(s)  2P renormalized

     **************************************************************************
     Initializing libbeef V0.1.2 with the BEEF-vdW functional.
     Citation: Wellendorff et al., PRB 85, 235149 (2012).
     **************************************************************************


     IMPORTANT: XC functional enforced from input :
     Exchange-correlation= BEEF-VDW
                           (   1   4  43  14   2   0   0)
     Any further DFT definition will be discarded
     Please, verify this is what you really want


     Subspace diagonalization in iterative solution of the eigenvalue problem:
     one sub-group per band group will be used
     scalapack distributed-memory algorithm (size of sub-group:  4*  4 procs)

  @ DRIVER MODE: Connecting to 
 qe_1130903_4011316.sched-torque.pace.gatech.eduxdpy2_i5_scratch
  using UNIX socket
  @ DRIVER MODE: Message from server: STATUS
  @ DRIVER MODE: Message from server: INIT
  @ DRIVER MODE: Receiving replica           0          -1
  @ DRIVER MODE: Receiving encoded integer          25
  @ DRIVER MODE:  SCF:  T  FORCE:  T  STRESS:  F  VC:  F  ENSEMBLE:  F
  @ DRIVER MODE:  SCF:  T  FORCE:  T  STRESS:  F  VC:  F  ENSEMBLE:  F
 
     Parallelization info
     --------------------
     sticks:   dense  smooth     PW     G-vecs:    dense   smooth      PW
     Min         256     102     28                49498    12526    1868
     Max         257     103     29                49510    12535    1881
     Sum        4097    1637    459               792059   200495   30031
 
     Using Slab Decomposition
 


     bravais-lattice index     =            0
     lattice parameter (alat)  =       1.8897  a.u.
     unit-cell volume          =    6658.9804 (a.u.)^3
     number of atoms/cell      =           50
     number of atomic types    =            4
     number of electrons       =       395.00
     number of Kohn-Sham states=          207
     kinetic-energy cutoff     =      36.7493  Ry
     charge density cutoff     =     367.4932  Ry
     scf convergence threshold =      7.3E-08
     mixing beta               =       0.0500
     number of iterations used =            8  plain     mixing
     Exchange-correlation= BEEF-VDW
                           (   1   4  43  14   2   0   0)

     celldm(1)=   1.889726  celldm(2)=   0.000000  celldm(3)=   0.000000
     celldm(4)=   0.000000  celldm(5)=   0.000000  celldm(6)=   0.000000

     crystal axes: (cart. coord. in units of alat)
               a(1) = (   6.579727   0.000000   0.000000 )  
               a(2) = (  -0.000775   5.961596   0.000000 )  
               a(3) = (   0.000000   0.000000  25.155947 )  

     reciprocal axes: (cart. coord. in units 2 pi/alat)
               b(1) = (  0.151982  0.000020  0.000000 )  
               b(2) = (  0.000000  0.167740  0.000000 )  
               b(3) = (  0.000000  0.000000  0.039752 )  


     PseudoPot. # 1 for Ti read from file:
     /storage/coda1/p-amedford6/0/shared/rich_project_chbe-medford/medford-share/data/pseudos_module/espresso/esp_pseudos_old/Ti.UPF
     MD5 check sum: 88a00a6731bd790ddea75d31a80cb452
     Pseudo is Ultrasoft + core correction, Zval = 12.0
     Generated by new atomic code, or converted to UPF format
     Using radial grid of  851 points,  6 beta functions with: 
                l(1) =   0
                l(2) =   0
                l(3) =   1
                l(4) =   1
                l(5) =   2
                l(6) =   2
     Q(r) pseudized with  6 coefficients,  rinner =    1.000   1.000   1.000
                                                       1.000   1.000

     PseudoPot. # 2 for O  read from file:
     /storage/coda1/p-amedford6/0/shared/rich_project_chbe-medford/medford-share/data/pseudos_module/espresso/esp_pseudos_old/O.UPF
     MD5 check sum: 0234752ac141de4415c5fc33072bef88
     Pseudo is Projector augmented-wave + core cor, Zval =  6.0
     Generated using "atomic" code by A. Dal Corso  v.5.0.99 svn rev. 10869
     Shape of augmentation charge: BESSEL
     Using radial grid of 1095 points,  4 beta functions with: 
                l(1) =   0
                l(2) =   0
                l(3) =   1
                l(4) =   1
     Q(r) pseudized with 0 coefficients 


     PseudoPot. # 3 for F  read from file:
     /storage/coda1/p-amedford6/0/shared/rich_project_chbe-medford/medford-share/data/pseudos_module/espresso/esp_pseudos_old/F.UPF
     MD5 check sum: 4c38b6a325caf53ec0e86aed9459de46
     Pseudo is Ultrasoft, Zval =  7.0
     Generated by new atomic code, or converted to UPF format
     Using radial grid of  799 points,  4 beta functions with: 
                l(1) =   0
                l(2) =   0
                l(3) =   1
                l(4) =   1
     Q(r) pseudized with  8 coefficients,  rinner =    0.950   0.950   0.950


     PseudoPot. # 4 for N  read from file:
     /storage/coda1/p-amedford6/0/shared/rich_project_chbe-medford/medford-share/data/pseudos_module/espresso/esp_pseudos_old/N.UPF
     MD5 check sum: 16739722b17309cd8fe442a2ace49922
     Pseudo is Ultrasoft + core correction, Zval =  5.0
     Generated using "atomic" code by A. Dal Corso  v.5.1
     Using radial grid of 1085 points,  4 beta functions with: 
                l(1) =   0
                l(2) =   0
                l(3) =   1
                l(4) =   1
     Q(r) pseudized with 0 coefficients 


     atomic species   valence    mass     pseudopotential
        Ti1           12.00    47.86700     Ti( 1.00)
        O1             6.00    15.99900     O ( 1.00)
        F1             7.00    18.99840     F ( 1.00)
        N1             5.00    14.00700     N ( 1.00)

     Starting magnetic structure 
     atomic species   magnetization
        Ti1          0.000
        O1           0.000
        F1           0.000
        N1           0.000

     No symmetry found



   Cartesian axes

     site n.     atom                  positions (alat units)
         1           Ti1 tau(   1) = (   0.0004258   2.9801865   6.0000000  )
         2           Ti1 tau(   2) = (   3.2906075   1.4906267   6.0002472  )
         3           O1  tau(   3) = (   0.0006271   0.0005054   7.9858123  )
         4           O1  tau(   4) = (   3.2906025   0.0005020   7.3038282  )
         5           O1  tau(   5) = (   4.5942328   1.4918067   9.2879030  )
         6           O1  tau(   6) = (   1.9868534   1.4903216   9.2879459  )
         7           Ti1 tau(   7) = (   3.2905683   2.9818392   9.1597947  )
         8           Ti1 tau(   8) = (   0.0009689   1.5052867   9.3302970  )
         9           O1  tau(   9) = (   3.2906296   0.0008011  11.3650401  )
        10           O1  tau(  10) = (   0.0007044   0.0001637  10.5878211  )
        11           O1  tau(  11) = (   1.2916503   1.4840475  12.6499259  )
        12           O1  tau(  12) = (   5.2890670   1.4839103  12.6499172  )
        13           Ti1 tau(  13) = (   0.0003471   2.9805890  12.8340280  )
        14           Ti1 tau(  14) = (   3.2904058   1.4906750  12.5078451  )
        15           O1  tau(  15) = (   0.0005791   0.0029611  14.7419464  )
        16           O1  tau(  16) = (   3.2903900   0.0020092  13.9623737  )
        17           O1  tau(  17) = (   4.5473729   1.4978211  16.1092662  )
        18           O1  tau(  18) = (   2.0330876   1.4977713  16.1093153  )
        19           Ti1 tau(  19) = (   3.2900215   2.9838978  15.7504520  )
        20           Ti1 tau(  20) = (   0.0002429   1.3930638  16.0611020  )
        21           O1  tau(  21) = (   3.2904802   0.0005063   4.7018136  )
        22           O1  tau(  22) = (   0.0005680   0.0022684  17.2418851  )
        23           O1  tau(  23) = (   1.3043587   1.4918075   6.0039043  )
        24           O1  tau(  24) = (   5.2767064   1.4903225   6.0039473  )
        25           Ti1 tau(  25) = (   0.0000382   5.9609847   6.0000000  )
        26           Ti1 tau(  26) = (   3.2902200   4.4714249   6.0002472  )
        27           O1  tau(  27) = (   0.0002396   2.9813036   7.9858123  )
        28           O1  tau(  28) = (   3.2902150   2.9813002   7.3038282  )
        29           O1  tau(  29) = (   4.5938453   4.4726049   9.2879030  )
        30           O1  tau(  30) = (   1.9864658   4.4711199   9.2879459  )
        31           Ti1 tau(  31) = (   3.2909982   0.0016570   9.1583503  )
        32           Ti1 tau(  32) = (   0.0005865   4.4518293   9.3323505  )
        33           O1  tau(  33) = (   3.2902211   2.9814704  11.3676522  )
        34           O1  tau(  34) = (   0.0003571   2.9798178  10.5649370  )
        35           O1  tau(  35) = (   1.2912824   4.4789975  12.6497594  )
        36           O1  tau(  36) = (   5.2886310   4.4788489  12.6498707  )
        37           Ti1 tau(  37) = (  -0.0000852   5.9614161  12.5308217  )
        38           Ti1 tau(  38) = (   3.2900106   4.4711686  12.5075749  )
        39           O1  tau(  39) = (   0.0002811   2.9836360  14.7019557  )
        40           O1  tau(  40) = (   3.2900852   2.9824046  13.9564577  )
        41           O1  tau(  41) = (   4.5467726   4.4698619  16.1079114  )
        42           O1  tau(  42) = (   2.0328856   4.4697323  16.1079673  )
        43           Ti1 tau(  43) = (   3.2902371   0.0024796  15.7542411  )
        44           Ti1 tau(  44) = (  -0.0001846   4.5739219  16.0548636  )
        45           O1  tau(  45) = (   3.2900926   2.9813045   4.7018136  )
        46           F1  tau(  46) = (   0.0000373   2.9839083  17.2994065  )
        47           O1  tau(  47) = (   1.3039711   4.4726057   6.0039043  )
        48           O1  tau(  48) = (   5.2763189   4.4711207   6.0039473  )
        49           N1  tau(  49) = (   6.3491669   2.7825235  18.4994065  )
        50           N1  tau(  50) = (   6.2271734   2.6017940  19.5994065  )

     number of k points=    10  Fermi-Dirac smearing, width (Ry)=  0.0007
                       cart. coord. in units 2pi/alat
        k(    1) = (   0.0000000   0.0000000   0.0000000), wk =   0.0625000
        k(    2) = (   0.0000000   0.0419351   0.0000000), wk =   0.1250000
        k(    3) = (   0.0000000  -0.0838702   0.0000000), wk =   0.0625000
        k(    4) = (   0.0379955   0.0000049   0.0000000), wk =   0.1250000
        k(    5) = (   0.0379955   0.0419400   0.0000000), wk =   0.1250000
        k(    6) = (   0.0379955  -0.0838652   0.0000000), wk =   0.1250000
        k(    7) = (   0.0379955  -0.0419301   0.0000000), wk =   0.1250000
        k(    8) = (  -0.0759910  -0.0000099   0.0000000), wk =   0.0625000
        k(    9) = (  -0.0759910   0.0419252   0.0000000), wk =   0.1250000
        k(   10) = (  -0.0759910  -0.0838800   0.0000000), wk =   0.0625000

     Dense  grid:   792059 G-vectors     FFT dimensions: (  75,  72, 300)

     Smooth grid:   200495 G-vectors     FFT dimensions: (  48,  45, 192)

     Estimated max dynamical RAM per process >     384.45 MB

     Estimated total dynamical RAM >       6.01 GB

     Check: negative core charge=   -0.000008
     Generating pointlists ...
     new r_m :   0.7391 (alat units)  1.3968 (a.u.) for type    1
     new r_m :   0.7391 (alat units)  1.3968 (a.u.) for type    2
     new r_m :   0.5109 (alat units)  0.9654 (a.u.) for type    3
     new r_m :   0.4626 (alat units)  0.8741 (a.u.) for type    4

     Initial potential from superposition of free atoms

     starting charge  378.99923, renormalised to  395.00000

     negative rho (up, down):  1.163E-02 1.163E-02


     %%%%%%%%%%%%%%%%%%%%%%%%%%%%%%%%%%%%%%%%%%%%%%%%%%%%%%%%%%%%%%%%%%%%%%%%
     %                                                                      %
     % You are using vdW-DF, which was implemented by the Thonhauser group. %
     % Please cite the following two papers that made this development      %
     % possible and the two reviews that describe the various versions:     %
     %                                                                      %
     %   T. Thonhauser et al., PRL 115, 136402 (2015).                      %
     %   T. Thonhauser et al., PRB 76, 125112 (2007).                       %
     %   K. Berland et al., Rep. Prog. Phys. 78, 066501 (2015).             %
     %   D.C. Langreth et al., J. Phys.: Condens. Matter 21, 084203 (2009). %
     %                                                                      %
     %                                                                      %
     % If you are calculating the stress with vdW-DF, please also cite:     %
     %                                                                      %
     %   R. Sabatini et al., J. Phys.: Condens. Matter 24, 424209 (2012).   %
     %                                                                      %
     %%%%%%%%%%%%%%%%%%%%%%%%%%%%%%%%%%%%%%%%%%%%%%%%%%%%%%%%%%%%%%%%%%%%%%%%


 
     Adding external electric field

     Computed dipole along edir(3) : 
        Dipole               -7.9419 Ry au,        -20.1864 Debye
        Dipole field         -0.0150 Ry au, 
 
        Potential amp.        1.3893 Ry
        Total length         46.3494 bohr
 
 
     Adding external electric field

     Computed dipole along edir(3) : 
        Dipole               -7.9419 Ry au,        -20.1864 Debye
        Dipole field         -0.0150 Ry au, 
 
        Potential amp.        1.3893 Ry
        Total length         46.3494 bohr
 
     Starting wfcs are  296 randomized atomic wfcs
     Checking if some PAW data can be deallocated... 
  @ DRIVER MODE: Message from server: STATUS
  @ DRIVER MODE: Message from server: POSDATA
  @ DRIVER MODE: Reading and sharing cell 
  @ DRIVER MODE: Reading and sharing positions 
  @ DRIVER MODE: Received positions 

     total cpu time spent up to now is       18.4 secs

     Self-consistent Calculation

     iteration #  1     ecut=    36.75 Ry     beta= 0.05
     Davidson diagonalization with overlap
     ethr =  1.00E-02,  avg # of iterations =  2.4

     negative rho (up, down):  1.052E-02 1.052E-02
 
     Adding external electric field

     Computed dipole along edir(3) : 
        Dipole               36.0865 Ry au,         91.7227 Debye
        Dipole field          0.0681 Ry au, 
 
        Potential amp.       -6.3128 Ry
        Total length         46.3494 bohr
 
 
     Adding external electric field

     Computed dipole along edir(3) : 
        Dipole               36.0865 Ry au,         91.7227 Debye
        Dipole field          0.0681 Ry au, 
 
        Potential amp.       -6.3128 Ry
        Total length         46.3494 bohr
 

     total cpu time spent up to now is       42.3 secs

     total energy              =   -3038.22070514 Ry
     estimated scf accuracy    <    3253.02188490 Ry

     total magnetization       =    -0.00 Bohr mag/cell
     absolute magnetization    =     0.15 Bohr mag/cell

     iteration #  2     ecut=    36.75 Ry     beta= 0.05
     Davidson diagonalization with overlap
     ethr =  1.00E-02,  avg # of iterations = 17.1

     negative rho (up, down):  1.001E-02 1.001E-02
 
     Adding external electric field

     Computed dipole along edir(3) : 
        Dipole               -3.4581 Ry au,         -8.7897 Debye
        Dipole field         -0.0065 Ry au, 
 
        Potential amp.        0.6049 Ry
        Total length         46.3494 bohr
 
 
     Adding external electric field

     Computed dipole along edir(3) : 
        Dipole               -3.4581 Ry au,         -8.7897 Debye
        Dipole field         -0.0065 Ry au, 
 
        Potential amp.        0.6049 Ry
        Total length         46.3494 bohr
 

     total cpu time spent up to now is      145.1 secs

     total energy              =   -2855.83263871 Ry
     estimated scf accuracy    <   61859.45107501 Ry

     total magnetization       =     0.07 Bohr mag/cell
     absolute magnetization    =     0.76 Bohr mag/cell

     iteration #  3     ecut=    36.75 Ry     beta= 0.05
     Davidson diagonalization with overlap
     ethr =  1.00E-02,  avg # of iterations = 15.4

     negative rho (up, down):  9.817E-03 9.818E-03
 
     Adding external electric field

     Computed dipole along edir(3) : 
        Dipole               -5.0071 Ry au,        -12.7267 Debye
        Dipole field         -0.0094 Ry au, 
 
        Potential amp.        0.8759 Ry
        Total length         46.3494 bohr
 
 
     Adding external electric field

     Computed dipole along edir(3) : 
        Dipole               -5.0071 Ry au,        -12.7267 Debye
        Dipole field         -0.0094 Ry au, 
 
        Potential amp.        0.8759 Ry
        Total length         46.3494 bohr
 

     total cpu time spent up to now is      228.3 secs

     total energy              =   -3309.77886904 Ry
     estimated scf accuracy    <    3200.53326199 Ry

     total magnetization       =    -0.10 Bohr mag/cell
     absolute magnetization    =     0.56 Bohr mag/cell

     iteration #  4     ecut=    36.75 Ry     beta= 0.05
     Davidson diagonalization with overlap
     c_bands:  3 eigenvalues not converged
     c_bands:  3 eigenvalues not converged
     c_bands:  5 eigenvalues not converged
     c_bands:  2 eigenvalues not converged
     c_bands:  1 eigenvalues not converged
     ethr =  1.00E-02,  avg # of iterations = 17.6

     negative rho (up, down):  1.001E-02 1.001E-02
 
     Adding external electric field

     Computed dipole along edir(3) : 
        Dipole               -5.1776 Ry au,        -13.1601 Debye
        Dipole field         -0.0098 Ry au, 
 
        Potential amp.        0.9057 Ry
        Total length         46.3494 bohr
 
 
     Adding external electric field

     Computed dipole along edir(3) : 
        Dipole               -5.1776 Ry au,        -13.1601 Debye
        Dipole field         -0.0098 Ry au, 
 
        Potential amp.        0.9057 Ry
        Total length         46.3494 bohr
 

     total cpu time spent up to now is      269.6 secs

     total energy              =   -3332.17806409 Ry
     estimated scf accuracy    <      85.60888116 Ry

     total magnetization       =     1.25 Bohr mag/cell
     absolute magnetization    =     1.29 Bohr mag/cell

     iteration #  5     ecut=    36.75 Ry     beta= 0.05
     Davidson diagonalization with overlap
     ethr =  1.00E-02,  avg # of iterations =  2.0

     negative rho (up, down):  1.015E-02 1.015E-02
 
     Adding external electric field

     Computed dipole along edir(3) : 
        Dipole               -5.2471 Ry au,        -13.3369 Debye
        Dipole field         -0.0099 Ry au, 
 
        Potential amp.        0.9179 Ry
        Total length         46.3494 bohr
 
 
     Adding external electric field

     Computed dipole along edir(3) : 
        Dipole               -5.2471 Ry au,        -13.3369 Debye
        Dipole field         -0.0099 Ry au, 
 
        Potential amp.        0.9179 Ry
        Total length         46.3494 bohr
 

     total cpu time spent up to now is      289.4 secs

     total energy              =   -3332.07144157 Ry
     estimated scf accuracy    <      53.26742852 Ry

     total magnetization       =     0.89 Bohr mag/cell
     absolute magnetization    =     1.21 Bohr mag/cell

     iteration #  6     ecut=    36.75 Ry     beta= 0.05
     Davidson diagonalization with overlap
     ethr =  1.00E-02,  avg # of iterations =  1.0

     negative rho (up, down):  1.099E-02 1.100E-02
 
     Adding external electric field

     Computed dipole along edir(3) : 
        Dipole               -5.6166 Ry au,        -14.2759 Debye
        Dipole field         -0.0106 Ry au, 
 
        Potential amp.        0.9825 Ry
        Total length         46.3494 bohr
 
 
     Adding external electric field

     Computed dipole along edir(3) : 
        Dipole               -5.6166 Ry au,        -14.2759 Debye
        Dipole field         -0.0106 Ry au, 
 
        Potential amp.        0.9825 Ry
        Total length         46.3494 bohr
 

     total cpu time spent up to now is      307.3 secs

     total energy              =   -3327.93049918 Ry
     estimated scf accuracy    <      52.85213372 Ry

     total magnetization       =     0.97 Bohr mag/cell
     absolute magnetization    =     1.13 Bohr mag/cell

     iteration #  7     ecut=    36.75 Ry     beta= 0.05
     Davidson diagonalization with overlap
     ethr =  1.00E-02,  avg # of iterations =  5.0

     negative rho (up, down):  1.105E-02 1.105E-02
 
     Adding external electric field

     Computed dipole along edir(3) : 
        Dipole               -5.3034 Ry au,        -13.4799 Debye
        Dipole field         -0.0100 Ry au, 
 
        Potential amp.        0.9277 Ry
        Total length         46.3494 bohr
 
 
     Adding external electric field

     Computed dipole along edir(3) : 
        Dipole               -5.3034 Ry au,        -13.4799 Debye
        Dipole field         -0.0100 Ry au, 
 
        Potential amp.        0.9277 Ry
        Total length         46.3494 bohr
 

     total cpu time spent up to now is      329.8 secs

     total energy              =   -3331.41725874 Ry
     estimated scf accuracy    <       7.69277485 Ry

     total magnetization       =     0.13 Bohr mag/cell
     absolute magnetization    =     0.42 Bohr mag/cell

     iteration #  8     ecut=    36.75 Ry     beta= 0.05
     Davidson diagonalization with overlap
     c_bands:  1 eigenvalues not converged
     ethr =  1.95E-03,  avg # of iterations =  6.1

     negative rho (up, down):  1.098E-02 1.095E-02
 
     Adding external electric field

     Computed dipole along edir(3) : 
        Dipole               -4.8821 Ry au,        -12.4090 Debye
        Dipole field         -0.0092 Ry au, 
 
        Potential amp.        0.8540 Ry
        Total length         46.3494 bohr
 
 
     Adding external electric field

     Computed dipole along edir(3) : 
        Dipole               -4.8821 Ry au,        -12.4090 Debye
        Dipole field         -0.0092 Ry au, 
 
        Potential amp.        0.8540 Ry
        Total length         46.3494 bohr
 

     total cpu time spent up to now is      354.2 secs

     total energy              =   -3331.89743322 Ry
     estimated scf accuracy    <      12.05144767 Ry

     total magnetization       =    -0.57 Bohr mag/cell
     absolute magnetization    =     0.85 Bohr mag/cell

     iteration #  9     ecut=    36.75 Ry     beta= 0.05
     Davidson diagonalization with overlap
     ethr =  1.95E-03,  avg # of iterations =  1.8

     negative rho (up, down):  1.073E-02 1.061E-02
 
     Adding external electric field

     Computed dipole along edir(3) : 
        Dipole               -2.5389 Ry au,         -6.4531 Debye
        Dipole field         -0.0048 Ry au, 
 
        Potential amp.        0.4441 Ry
        Total length         46.3494 bohr
 
 
     Adding external electric field

     Computed dipole along edir(3) : 
        Dipole               -2.5389 Ry au,         -6.4531 Debye
        Dipole field         -0.0048 Ry au, 
 
        Potential amp.        0.4441 Ry
        Total length         46.3494 bohr
 

     total cpu time spent up to now is      372.1 secs

     total energy              =   -3331.14432853 Ry
     estimated scf accuracy    <       7.97728262 Ry

     total magnetization       =    -0.27 Bohr mag/cell
     absolute magnetization    =     0.48 Bohr mag/cell

     iteration # 10     ecut=    36.75 Ry     beta= 0.05
     Davidson diagonalization with overlap
     ethr =  1.95E-03,  avg # of iterations =  4.4

     negative rho (up, down):  1.129E-02 1.112E-02
 
     Adding external electric field

     Computed dipole along edir(3) : 
        Dipole               -1.7608 Ry au,         -4.4755 Debye
        Dipole field         -0.0033 Ry au, 
 
        Potential amp.        0.3080 Ry
        Total length         46.3494 bohr
 
 
     Adding external electric field

     Computed dipole along edir(3) : 
        Dipole               -1.7608 Ry au,         -4.4755 Debye
        Dipole field         -0.0033 Ry au, 
 
        Potential amp.        0.3080 Ry
        Total length         46.3494 bohr
 

     total cpu time spent up to now is      393.4 secs

     total energy              =   -3330.91488762 Ry
     estimated scf accuracy    <     121.15764157 Ry

     total magnetization       =     0.27 Bohr mag/cell
     absolute magnetization    =     0.64 Bohr mag/cell

     iteration # 11     ecut=    36.75 Ry     beta= 0.05
     Davidson diagonalization with overlap
     ethr =  1.95E-03,  avg # of iterations =  2.3

     negative rho (up, down):  1.169E-02 1.150E-02
 
     Adding external electric field

     Computed dipole along edir(3) : 
        Dipole               -2.3588 Ry au,         -5.9954 Debye
        Dipole field         -0.0045 Ry au, 
 
        Potential amp.        0.4126 Ry
        Total length         46.3494 bohr
 
 
     Adding external electric field

     Computed dipole along edir(3) : 
        Dipole               -2.3588 Ry au,         -5.9954 Debye
        Dipole field         -0.0045 Ry au, 
 
        Potential amp.        0.4126 Ry
        Total length         46.3494 bohr
 

     total cpu time spent up to now is      412.6 secs

     total energy              =   -3328.52983025 Ry
     estimated scf accuracy    <      67.55359632 Ry

     total magnetization       =     0.41 Bohr mag/cell
     absolute magnetization    =     0.71 Bohr mag/cell

     iteration # 12     ecut=    36.75 Ry     beta= 0.05
     Davidson diagonalization with overlap
     ethr =  1.95E-03,  avg # of iterations =  7.9

     negative rho (up, down):  1.142E-02 1.124E-02
 
     Adding external electric field

     Computed dipole along edir(3) : 
        Dipole               -2.3205 Ry au,         -5.8980 Debye
        Dipole field         -0.0044 Ry au, 
 
        Potential amp.        0.4059 Ry
        Total length         46.3494 bohr
 
 
     Adding external electric field

     Computed dipole along edir(3) : 
        Dipole               -2.3205 Ry au,         -5.8980 Debye
        Dipole field         -0.0044 Ry au, 
 
        Potential amp.        0.4059 Ry
        Total length         46.3494 bohr
 

     total cpu time spent up to now is      452.0 secs

     total energy              =   -3330.94978157 Ry
     estimated scf accuracy    <       1.73835415 Ry

     total magnetization       =    -0.05 Bohr mag/cell
     absolute magnetization    =     0.56 Bohr mag/cell

     iteration # 13     ecut=    36.75 Ry     beta= 0.05
     Davidson diagonalization with overlap
     ethr =  4.40E-04,  avg # of iterations =  3.5

     negative rho (up, down):  1.128E-02 1.110E-02
 
     Adding external electric field

     Computed dipole along edir(3) : 
        Dipole               -2.1031 Ry au,         -5.3455 Debye
        Dipole field         -0.0040 Ry au, 
 
        Potential amp.        0.3679 Ry
        Total length         46.3494 bohr
 
 
     Adding external electric field

     Computed dipole along edir(3) : 
        Dipole               -2.1031 Ry au,         -5.3455 Debye
        Dipole field         -0.0040 Ry au, 
 
        Potential amp.        0.3679 Ry
        Total length         46.3494 bohr
 

     total cpu time spent up to now is      471.9 secs

     total energy              =   -3330.95528657 Ry
     estimated scf accuracy    <       1.18656838 Ry

     total magnetization       =    -0.17 Bohr mag/cell
     absolute magnetization    =     0.42 Bohr mag/cell

     iteration # 14     ecut=    36.75 Ry     beta= 0.05
     Davidson diagonalization with overlap
     ethr =  3.00E-04,  avg # of iterations =  3.5

     negative rho (up, down):  1.108E-02 1.087E-02
 
     Adding external electric field

     Computed dipole along edir(3) : 
        Dipole               -1.6188 Ry au,         -4.1146 Debye
        Dipole field         -0.0031 Ry au, 
 
        Potential amp.        0.2832 Ry
        Total length         46.3494 bohr
 
 
     Adding external electric field

     Computed dipole along edir(3) : 
        Dipole               -1.6188 Ry au,         -4.1146 Debye
        Dipole field         -0.0031 Ry au, 
 
        Potential amp.        0.2832 Ry
        Total length         46.3494 bohr
 

     total cpu time spent up to now is      492.6 secs

     total energy              =   -3330.87170249 Ry
     estimated scf accuracy    <       0.89046057 Ry

     total magnetization       =    -0.15 Bohr mag/cell
     absolute magnetization    =     0.42 Bohr mag/cell

     iteration # 15     ecut=    36.75 Ry     beta= 0.05
     Davidson diagonalization with overlap
     ethr =  2.25E-04,  avg # of iterations =  5.0

     negative rho (up, down):  1.112E-02 1.087E-02
 
     Adding external electric field

     Computed dipole along edir(3) : 
        Dipole               -1.0132 Ry au,         -2.5753 Debye
        Dipole field         -0.0019 Ry au, 
 
        Potential amp.        0.1772 Ry
        Total length         46.3494 bohr
 
 
     Adding external electric field

     Computed dipole along edir(3) : 
        Dipole               -1.0132 Ry au,         -2.5753 Debye
        Dipole field         -0.0019 Ry au, 
 
        Potential amp.        0.1772 Ry
        Total length         46.3494 bohr
 

     total cpu time spent up to now is      513.5 secs

     total energy              =   -3330.81767419 Ry
     estimated scf accuracy    <       0.49583252 Ry

     total magnetization       =    -0.08 Bohr mag/cell
     absolute magnetization    =     0.33 Bohr mag/cell

     iteration # 16     ecut=    36.75 Ry     beta= 0.05
     Davidson diagonalization with overlap
     c_bands:  2 eigenvalues not converged
     c_bands:  1 eigenvalues not converged
     ethr =  1.26E-04,  avg # of iterations = 15.4

     negative rho (up, down):  1.108E-02 1.083E-02
 
     Adding external electric field

     Computed dipole along edir(3) : 
        Dipole               -0.9381 Ry au,         -2.3845 Debye
        Dipole field         -0.0018 Ry au, 
 
        Potential amp.        0.1641 Ry
        Total length         46.3494 bohr
 
 
     Adding external electric field

     Computed dipole along edir(3) : 
        Dipole               -0.9381 Ry au,         -2.3845 Debye
        Dipole field         -0.0018 Ry au, 
 
        Potential amp.        0.1641 Ry
        Total length         46.3494 bohr
 

     total cpu time spent up to now is      550.6 secs

     total energy              =   -3330.99905235 Ry
     estimated scf accuracy    <      14.48302582 Ry

     total magnetization       =    -0.37 Bohr mag/cell
     absolute magnetization    =     0.47 Bohr mag/cell

     iteration # 17     ecut=    36.75 Ry     beta= 0.05
     Davidson diagonalization with overlap
     ethr =  1.26E-04,  avg # of iterations =  2.9

     negative rho (up, down):  1.106E-02 1.081E-02
 
     Adding external electric field

     Computed dipole along edir(3) : 
        Dipole               -0.9963 Ry au,         -2.5323 Debye
        Dipole field         -0.0019 Ry au, 
 
        Potential amp.        0.1743 Ry
        Total length         46.3494 bohr
 
 
     Adding external electric field

     Computed dipole along edir(3) : 
        Dipole               -0.9963 Ry au,         -2.5323 Debye
        Dipole field         -0.0019 Ry au, 
 
        Potential amp.        0.1743 Ry
        Total length         46.3494 bohr
 

     total cpu time spent up to now is      569.9 secs

     total energy              =   -3331.04309868 Ry
     estimated scf accuracy    <      13.18418295 Ry

     total magnetization       =    -0.36 Bohr mag/cell
     absolute magnetization    =     0.46 Bohr mag/cell

     iteration # 18     ecut=    36.75 Ry     beta= 0.05
     Davidson diagonalization with overlap
     ethr =  1.26E-04,  avg # of iterations =  1.1

     negative rho (up, down):  1.104E-02 1.082E-02
 
     Adding external electric field

     Computed dipole along edir(3) : 
        Dipole               -1.5020 Ry au,         -3.8176 Debye
        Dipole field         -0.0028 Ry au, 
 
        Potential amp.        0.2627 Ry
        Total length         46.3494 bohr
 
 
     Adding external electric field

     Computed dipole along edir(3) : 
        Dipole               -1.5020 Ry au,         -3.8176 Debye
        Dipole field         -0.0028 Ry au, 
 
        Potential amp.        0.2627 Ry
        Total length         46.3494 bohr
 

     total cpu time spent up to now is      587.1 secs

     total energy              =   -3331.40822047 Ry
     estimated scf accuracy    <      13.35708081 Ry

     total magnetization       =    -0.35 Bohr mag/cell
     absolute magnetization    =     0.44 Bohr mag/cell

     iteration # 19     ecut=    36.75 Ry     beta= 0.05
     Davidson diagonalization with overlap
     c_bands:  2 eigenvalues not converged
     ethr =  1.26E-04,  avg # of iterations =  8.2

     negative rho (up, down):  1.100E-02 1.080E-02
 
     Adding external electric field

     Computed dipole along edir(3) : 
        Dipole               -1.4877 Ry au,         -3.7814 Debye
        Dipole field         -0.0028 Ry au, 
 
        Potential amp.        0.2603 Ry
        Total length         46.3494 bohr
 
 
     Adding external electric field

     Computed dipole along edir(3) : 
        Dipole               -1.4877 Ry au,         -3.7814 Debye
        Dipole field         -0.0028 Ry au, 
 
        Potential amp.        0.2603 Ry
        Total length         46.3494 bohr
 

     total cpu time spent up to now is      610.2 secs

     total energy              =   -3331.47707270 Ry
     estimated scf accuracy    <      18.75739109 Ry

     total magnetization       =    -0.20 Bohr mag/cell
     absolute magnetization    =     0.31 Bohr mag/cell

     iteration # 20     ecut=    36.75 Ry     beta= 0.05
     Davidson diagonalization with overlap
     ethr =  1.26E-04,  avg # of iterations =  1.1

     negative rho (up, down):  1.107E-02 1.081E-02
 
     Adding external electric field

     Computed dipole along edir(3) : 
        Dipole               -0.5149 Ry au,         -1.3088 Debye
        Dipole field         -0.0010 Ry au, 
 
        Potential amp.        0.0901 Ry
        Total length         46.3494 bohr
 
 
     Adding external electric field

     Computed dipole along edir(3) : 
        Dipole               -0.5149 Ry au,         -1.3088 Debye
        Dipole field         -0.0010 Ry au, 
 
        Potential amp.        0.0901 Ry
        Total length         46.3494 bohr
 

     total cpu time spent up to now is      627.5 secs

     total energy              =   -3330.47017614 Ry
     estimated scf accuracy    <      22.61072061 Ry

     total magnetization       =    -0.24 Bohr mag/cell
     absolute magnetization    =     0.34 Bohr mag/cell

     iteration # 21     ecut=    36.75 Ry     beta= 0.05
     Davidson diagonalization with overlap
     c_bands:  3 eigenvalues not converged
     c_bands:  4 eigenvalues not converged
     c_bands:  5 eigenvalues not converged
     c_bands:  3 eigenvalues not converged
     c_bands:  2 eigenvalues not converged
     c_bands:  1 eigenvalues not converged
     c_bands:  1 eigenvalues not converged
     c_bands:  3 eigenvalues not converged
     c_bands:  1 eigenvalues not converged
     c_bands:  3 eigenvalues not converged
     ethr =  1.26E-04,  avg # of iterations = 20.1

     negative rho (up, down):  1.103E-02 1.078E-02
 
     Adding external electric field

     Computed dipole along edir(3) : 
        Dipole               -0.6967 Ry au,         -1.7708 Debye
        Dipole field         -0.0013 Ry au, 
 
        Potential amp.        0.1219 Ry
        Total length         46.3494 bohr
 
 
     Adding external electric field

     Computed dipole along edir(3) : 
        Dipole               -0.6967 Ry au,         -1.7708 Debye
        Dipole field         -0.0013 Ry au, 
 
        Potential amp.        0.1219 Ry
        Total length         46.3494 bohr
 

     total cpu time spent up to now is      669.6 secs

     total energy              =   -3330.84875051 Ry
     estimated scf accuracy    <       2.05002002 Ry

     total magnetization       =    -0.03 Bohr mag/cell
     absolute magnetization    =     0.19 Bohr mag/cell

     iteration # 22     ecut=    36.75 Ry     beta= 0.05
     Davidson diagonalization with overlap
     ethr =  1.26E-04,  avg # of iterations =  8.7

     negative rho (up, down):  1.095E-02 1.071E-02
 
     Adding external electric field

     Computed dipole along edir(3) : 
        Dipole               -0.8494 Ry au,         -2.1591 Debye
        Dipole field         -0.0016 Ry au, 
 
        Potential amp.        0.1486 Ry
        Total length         46.3494 bohr
 
 
     Adding external electric field

     Computed dipole along edir(3) : 
        Dipole               -0.8494 Ry au,         -2.1591 Debye
        Dipole field         -0.0016 Ry au, 
 
        Potential amp.        0.1486 Ry
        Total length         46.3494 bohr
 

     total cpu time spent up to now is      692.0 secs

     total energy              =   -3330.85207279 Ry
     estimated scf accuracy    <       0.76558340 Ry

     total magnetization       =     0.06 Bohr mag/cell
     absolute magnetization    =     0.22 Bohr mag/cell

     iteration # 23     ecut=    36.75 Ry     beta= 0.05
     Davidson diagonalization with overlap
     ethr =  1.26E-04,  avg # of iterations =  2.0

     negative rho (up, down):  1.071E-02 1.049E-02
 
     Adding external electric field

     Computed dipole along edir(3) : 
        Dipole               -0.0189 Ry au,         -0.0481 Debye
        Dipole field         -0.0000 Ry au, 
 
        Potential amp.        0.0033 Ry
        Total length         46.3494 bohr
 
 
     Adding external electric field

     Computed dipole along edir(3) : 
        Dipole               -0.0189 Ry au,         -0.0481 Debye
        Dipole field         -0.0000 Ry au, 
 
        Potential amp.        0.0033 Ry
        Total length         46.3494 bohr
 

     total cpu time spent up to now is      711.1 secs

     total energy              =   -3330.82735067 Ry
     estimated scf accuracy    <       0.47355005 Ry

     total magnetization       =     0.02 Bohr mag/cell
     absolute magnetization    =     0.24 Bohr mag/cell

     iteration # 24     ecut=    36.75 Ry     beta= 0.05
     Davidson diagonalization with overlap
     c_bands:  3 eigenvalues not converged
     c_bands:  1 eigenvalues not converged
     c_bands:  1 eigenvalues not converged
     ethr =  1.20E-04,  avg # of iterations =  9.9

     negative rho (up, down):  1.072E-02 1.051E-02
 
     Adding external electric field

     Computed dipole along edir(3) : 
        Dipole                0.1463 Ry au,          0.3718 Debye
        Dipole field          0.0003 Ry au, 
 
        Potential amp.       -0.0256 Ry
        Total length         46.3494 bohr
 
 
     Adding external electric field

     Computed dipole along edir(3) : 
        Dipole                0.1463 Ry au,          0.3718 Debye
        Dipole field          0.0003 Ry au, 
 
        Potential amp.       -0.0256 Ry
        Total length         46.3494 bohr
 

     total cpu time spent up to now is      735.0 secs

     total energy              =   -3330.84971503 Ry
     estimated scf accuracy    <       0.92131719 Ry

     total magnetization       =     0.01 Bohr mag/cell
     absolute magnetization    =     0.18 Bohr mag/cell

     iteration # 25     ecut=    36.75 Ry     beta= 0.05
     Davidson diagonalization with overlap
     ethr =  1.20E-04,  avg # of iterations =  1.7

     negative rho (up, down):  1.068E-02 1.049E-02
 
     Adding external electric field

     Computed dipole along edir(3) : 
        Dipole                0.6300 Ry au,          1.6012 Debye
        Dipole field          0.0012 Ry au, 
 
        Potential amp.       -0.1102 Ry
        Total length         46.3494 bohr
 
 
     Adding external electric field

     Computed dipole along edir(3) : 
        Dipole                0.6300 Ry au,          1.6012 Debye
        Dipole field          0.0012 Ry au, 
 
        Potential amp.       -0.1102 Ry
        Total length         46.3494 bohr
 

     total cpu time spent up to now is      752.8 secs

     total energy              =   -3330.83727164 Ry
     estimated scf accuracy    <       0.85782893 Ry

     total magnetization       =     0.03 Bohr mag/cell
     absolute magnetization    =     0.19 Bohr mag/cell

     iteration # 26     ecut=    36.75 Ry     beta= 0.05
     Davidson diagonalization with overlap
     c_bands:  1 eigenvalues not converged
     c_bands:  2 eigenvalues not converged
     c_bands:  1 eigenvalues not converged
     c_bands:  1 eigenvalues not converged
     c_bands:  1 eigenvalues not converged
     c_bands:  1 eigenvalues not converged
     c_bands:  2 eigenvalues not converged
     ethr =  1.20E-04,  avg # of iterations = 12.7

     negative rho (up, down):  1.054E-02 1.036E-02
 
     Adding external electric field

     Computed dipole along edir(3) : 
        Dipole                0.8564 Ry au,          2.1768 Debye
        Dipole field          0.0016 Ry au, 
 
        Potential amp.       -0.1498 Ry
        Total length         46.3494 bohr
 
 
     Adding external electric field

     Computed dipole along edir(3) : 
        Dipole                0.8564 Ry au,          2.1768 Debye
        Dipole field          0.0016 Ry au, 
 
        Potential amp.       -0.1498 Ry
        Total length         46.3494 bohr
 

     total cpu time spent up to now is      785.6 secs

     total energy              =   -3330.84521363 Ry
     estimated scf accuracy    <       0.69710948 Ry

     total magnetization       =     0.05 Bohr mag/cell
     absolute magnetization    =     0.21 Bohr mag/cell

     iteration # 27     ecut=    36.75 Ry     beta= 0.05
     Davidson diagonalization with overlap
     c_bands:  2 eigenvalues not converged
     ethr =  1.20E-04,  avg # of iterations =  5.0

     negative rho (up, down):  1.030E-02 1.013E-02
 
     Adding external electric field

     Computed dipole along edir(3) : 
        Dipole                0.5871 Ry au,          1.4924 Debye
        Dipole field          0.0011 Ry au, 
 
        Potential amp.       -0.1027 Ry
        Total length         46.3494 bohr
 
 
     Adding external electric field

     Computed dipole along edir(3) : 
        Dipole                0.5871 Ry au,          1.4924 Debye
        Dipole field          0.0011 Ry au, 
 
        Potential amp.       -0.1027 Ry
        Total length         46.3494 bohr
 

     total cpu time spent up to now is      806.0 secs

     total energy              =   -3330.81278389 Ry
     estimated scf accuracy    <       0.80862503 Ry

     total magnetization       =     0.05 Bohr mag/cell
     absolute magnetization    =     0.21 Bohr mag/cell

     iteration # 28     ecut=    36.75 Ry     beta= 0.05
     Davidson diagonalization with overlap
     ethr =  1.20E-04,  avg # of iterations =  3.6

     negative rho (up, down):  1.039E-02 1.021E-02
 
     Adding external electric field

     Computed dipole along edir(3) : 
        Dipole                0.7738 Ry au,          1.9668 Debye
        Dipole field          0.0015 Ry au, 
 
        Potential amp.       -0.1354 Ry
        Total length         46.3494 bohr
 
 
     Adding external electric field

     Computed dipole along edir(3) : 
        Dipole                0.7738 Ry au,          1.9668 Debye
        Dipole field          0.0015 Ry au, 
 
        Potential amp.       -0.1354 Ry
        Total length         46.3494 bohr
 

     total cpu time spent up to now is      828.8 secs

     total energy              =   -3330.81892429 Ry
     estimated scf accuracy    <       0.34851969 Ry

     total magnetization       =    -0.01 Bohr mag/cell
     absolute magnetization    =     0.15 Bohr mag/cell

     iteration # 29     ecut=    36.75 Ry     beta= 0.05
     Davidson diagonalization with overlap
     ethr =  8.82E-05,  avg # of iterations =  2.0

     negative rho (up, down):  1.034E-02 1.016E-02
 
     Adding external electric field

     Computed dipole along edir(3) : 
        Dipole               -0.0474 Ry au,         -0.1206 Debye
        Dipole field         -0.0001 Ry au, 
 
        Potential amp.        0.0083 Ry
        Total length         46.3494 bohr
 
 
     Adding external electric field

     Computed dipole along edir(3) : 
        Dipole               -0.0474 Ry au,         -0.1206 Debye
        Dipole field         -0.0001 Ry au, 
 
        Potential amp.        0.0083 Ry
        Total length         46.3494 bohr
 

     total cpu time spent up to now is      856.1 secs

     total energy              =   -3330.78537921 Ry
     estimated scf accuracy    <       0.70429664 Ry

     total magnetization       =    -0.07 Bohr mag/cell
     absolute magnetization    =     0.20 Bohr mag/cell

     iteration # 30     ecut=    36.75 Ry     beta= 0.05
     Davidson diagonalization with overlap
     c_bands:  5 eigenvalues not converged
     c_bands:  1 eigenvalues not converged
     c_bands:  2 eigenvalues not converged
     c_bands:  3 eigenvalues not converged
     c_bands:  2 eigenvalues not converged
     c_bands:  2 eigenvalues not converged
     c_bands:  1 eigenvalues not converged
     c_bands:  2 eigenvalues not converged
     c_bands:  3 eigenvalues not converged
     c_bands:  2 eigenvalues not converged
     c_bands:  3 eigenvalues not converged
     ethr =  8.82E-05,  avg # of iterations = 18.6

     negative rho (up, down):  1.040E-02 1.023E-02
 
     Adding external electric field

     Computed dipole along edir(3) : 
        Dipole                0.8568 Ry au,          2.1777 Debye
        Dipole field          0.0016 Ry au, 
 
        Potential amp.       -0.1499 Ry
        Total length         46.3494 bohr
 
 
     Adding external electric field

     Computed dipole along edir(3) : 
        Dipole                0.8568 Ry au,          2.1777 Debye
        Dipole field          0.0016 Ry au, 
 
        Potential amp.       -0.1499 Ry
        Total length         46.3494 bohr
 

     total cpu time spent up to now is      902.9 secs

     total energy              =   -3330.63883629 Ry
     estimated scf accuracy    <       8.64012173 Ry

     total magnetization       =    -0.09 Bohr mag/cell
     absolute magnetization    =     0.20 Bohr mag/cell

     iteration # 31     ecut=    36.75 Ry     beta= 0.05
     Davidson diagonalization with overlap
     c_bands:  1 eigenvalues not converged
     c_bands:  1 eigenvalues not converged
     c_bands:  1 eigenvalues not converged
     c_bands:  2 eigenvalues not converged
     c_bands:  4 eigenvalues not converged
     c_bands:  1 eigenvalues not converged
     c_bands:  1 eigenvalues not converged
     c_bands:  2 eigenvalues not converged
     c_bands:  1 eigenvalues not converged
     c_bands:  1 eigenvalues not converged
     ethr =  8.82E-05,  avg # of iterations = 18.4

     negative rho (up, down):  1.035E-02 1.019E-02
 
     Adding external electric field

     Computed dipole along edir(3) : 
        Dipole                1.0065 Ry au,          2.5582 Debye
        Dipole field          0.0019 Ry au, 
 
        Potential amp.       -0.1761 Ry
        Total length         46.3494 bohr
 
 
     Adding external electric field

     Computed dipole along edir(3) : 
        Dipole                1.0065 Ry au,          2.5582 Debye
        Dipole field          0.0019 Ry au, 
 
        Potential amp.       -0.1761 Ry
        Total length         46.3494 bohr
 

     total cpu time spent up to now is      935.2 secs

     total energy              =   -3330.83300480 Ry
     estimated scf accuracy    <       0.34672334 Ry

     total magnetization       =     0.04 Bohr mag/cell
     absolute magnetization    =     0.21 Bohr mag/cell

     iteration # 32     ecut=    36.75 Ry     beta= 0.05
     Davidson diagonalization with overlap
     ethr =  8.78E-05,  avg # of iterations =  1.4

     negative rho (up, down):  1.033E-02 1.020E-02
 
     Adding external electric field

     Computed dipole along edir(3) : 
        Dipole                1.0468 Ry au,          2.6608 Debye
        Dipole field          0.0020 Ry au, 
 
        Potential amp.       -0.1831 Ry
        Total length         46.3494 bohr
 
 
     Adding external electric field

     Computed dipole along edir(3) : 
        Dipole                1.0468 Ry au,          2.6608 Debye
        Dipole field          0.0020 Ry au, 
 
        Potential amp.       -0.1831 Ry
        Total length         46.3494 bohr
 

     total cpu time spent up to now is      952.9 secs

     total energy              =   -3330.83314664 Ry
     estimated scf accuracy    <       0.34558711 Ry

     total magnetization       =     0.03 Bohr mag/cell
     absolute magnetization    =     0.19 Bohr mag/cell

     iteration # 33     ecut=    36.75 Ry     beta= 0.05
     Davidson diagonalization with overlap
     ethr =  8.75E-05,  avg # of iterations =  1.4

     negative rho (up, down):  1.023E-02 1.012E-02
 
     Adding external electric field

     Computed dipole along edir(3) : 
        Dipole                0.8680 Ry au,          2.2062 Debye
        Dipole field          0.0016 Ry au, 
 
        Potential amp.       -0.1518 Ry
        Total length         46.3494 bohr
 
 
     Adding external electric field

     Computed dipole along edir(3) : 
        Dipole                0.8680 Ry au,          2.2062 Debye
        Dipole field          0.0016 Ry au, 
 
        Potential amp.       -0.1518 Ry
        Total length         46.3494 bohr
 

     total cpu time spent up to now is      970.6 secs

     total energy              =   -3330.81779860 Ry
     estimated scf accuracy    <       0.43155651 Ry

     total magnetization       =     0.06 Bohr mag/cell
     absolute magnetization    =     0.22 Bohr mag/cell

     iteration # 34     ecut=    36.75 Ry     beta= 0.05
     Davidson diagonalization with overlap
     ethr =  8.75E-05,  avg # of iterations =  1.0

     negative rho (up, down):  1.024E-02 1.012E-02
 
     Adding external electric field

     Computed dipole along edir(3) : 
        Dipole                0.8606 Ry au,          2.1875 Debye
        Dipole field          0.0016 Ry au, 
 
        Potential amp.       -0.1506 Ry
        Total length         46.3494 bohr
 
 
     Adding external electric field

     Computed dipole along edir(3) : 
        Dipole                0.8606 Ry au,          2.1875 Debye
        Dipole field          0.0016 Ry au, 
 
        Potential amp.       -0.1506 Ry
        Total length         46.3494 bohr
 

     total cpu time spent up to now is      987.6 secs

     total energy              =   -3330.82169158 Ry
     estimated scf accuracy    <       0.21462678 Ry

     total magnetization       =     0.03 Bohr mag/cell
     absolute magnetization    =     0.19 Bohr mag/cell

     iteration # 35     ecut=    36.75 Ry     beta= 0.05
     Davidson diagonalization with overlap
     ethr =  5.43E-05,  avg # of iterations =  1.2

     negative rho (up, down):  1.023E-02 1.012E-02
 
     Adding external electric field

     Computed dipole along edir(3) : 
        Dipole                0.8697 Ry au,          2.2105 Debye
        Dipole field          0.0016 Ry au, 
 
        Potential amp.       -0.1521 Ry
        Total length         46.3494 bohr
 
 
     Adding external electric field

     Computed dipole along edir(3) : 
        Dipole                0.8697 Ry au,          2.2105 Debye
        Dipole field          0.0016 Ry au, 
 
        Potential amp.       -0.1521 Ry
        Total length         46.3494 bohr
 

     total cpu time spent up to now is     1005.1 secs

     total energy              =   -3330.82250334 Ry
     estimated scf accuracy    <       0.23759865 Ry

     total magnetization       =     0.03 Bohr mag/cell
     absolute magnetization    =     0.20 Bohr mag/cell

     iteration # 36     ecut=    36.75 Ry     beta= 0.05
     Davidson diagonalization with overlap
     ethr =  5.43E-05,  avg # of iterations =  1.0

     negative rho (up, down):  1.023E-02 1.012E-02
 
     Adding external electric field

     Computed dipole along edir(3) : 
        Dipole                0.8704 Ry au,          2.2124 Debye
        Dipole field          0.0016 Ry au, 
 
        Potential amp.       -0.1523 Ry
        Total length         46.3494 bohr
 
 
     Adding external electric field

     Computed dipole along edir(3) : 
        Dipole                0.8704 Ry au,          2.2124 Debye
        Dipole field          0.0016 Ry au, 
 
        Potential amp.       -0.1523 Ry
        Total length         46.3494 bohr
 

     total cpu time spent up to now is     1022.1 secs

     total energy              =   -3330.82310446 Ry
     estimated scf accuracy    <       0.24204277 Ry

     total magnetization       =     0.03 Bohr mag/cell
     absolute magnetization    =     0.20 Bohr mag/cell

     iteration # 37     ecut=    36.75 Ry     beta= 0.05
     Davidson diagonalization with overlap
     ethr =  5.43E-05,  avg # of iterations =  1.0

     negative rho (up, down):  1.022E-02 1.011E-02
 
     Adding external electric field

     Computed dipole along edir(3) : 
        Dipole                0.8395 Ry au,          2.1339 Debye
        Dipole field          0.0016 Ry au, 
 
        Potential amp.       -0.1469 Ry
        Total length         46.3494 bohr
 
 
     Adding external electric field

     Computed dipole along edir(3) : 
        Dipole                0.8395 Ry au,          2.1339 Debye
        Dipole field          0.0016 Ry au, 
 
        Potential amp.       -0.1469 Ry
        Total length         46.3494 bohr
 

     total cpu time spent up to now is     1039.2 secs

     total energy              =   -3330.82227301 Ry
     estimated scf accuracy    <       0.24630821 Ry

     total magnetization       =     0.03 Bohr mag/cell
     absolute magnetization    =     0.19 Bohr mag/cell

     iteration # 38     ecut=    36.75 Ry     beta= 0.05
     Davidson diagonalization with overlap
     ethr =  5.43E-05,  avg # of iterations =  1.0

     negative rho (up, down):  1.020E-02 1.009E-02
 
     Adding external electric field

     Computed dipole along edir(3) : 
        Dipole                0.9047 Ry au,          2.2994 Debye
        Dipole field          0.0017 Ry au, 
 
        Potential amp.       -0.1583 Ry
        Total length         46.3494 bohr
 
 
     Adding external electric field

     Computed dipole along edir(3) : 
        Dipole                0.9047 Ry au,          2.2994 Debye
        Dipole field          0.0017 Ry au, 
 
        Potential amp.       -0.1583 Ry
        Total length         46.3494 bohr
 

     total cpu time spent up to now is     1066.7 secs

     total energy              =   -3330.82198707 Ry
     estimated scf accuracy    <       0.23045309 Ry

     total magnetization       =     0.03 Bohr mag/cell
     absolute magnetization    =     0.19 Bohr mag/cell

     iteration # 39     ecut=    36.75 Ry     beta= 0.05
     Davidson diagonalization with overlap
     ethr =  5.43E-05,  avg # of iterations =  1.0

     negative rho (up, down):  1.012E-02 9.981E-03
 
     Adding external electric field

     Computed dipole along edir(3) : 
        Dipole                0.3783 Ry au,          0.9616 Debye
        Dipole field          0.0007 Ry au, 
 
        Potential amp.       -0.0662 Ry
        Total length         46.3494 bohr
 
 
     Adding external electric field

     Computed dipole along edir(3) : 
        Dipole                0.3783 Ry au,          0.9616 Debye
        Dipole field          0.0007 Ry au, 
 
        Potential amp.       -0.0662 Ry
        Total length         46.3494 bohr
 

     total cpu time spent up to now is     1083.7 secs

     total energy              =   -3330.78508144 Ry
     estimated scf accuracy    <       0.23119828 Ry

     total magnetization       =     0.03 Bohr mag/cell
     absolute magnetization    =     0.20 Bohr mag/cell

     iteration # 40     ecut=    36.75 Ry     beta= 0.05
     Davidson diagonalization with overlap
     c_bands:  2 eigenvalues not converged
     c_bands:  2 eigenvalues not converged
     c_bands:  4 eigenvalues not converged
     c_bands:  3 eigenvalues not converged
     c_bands:  4 eigenvalues not converged
     c_bands:  3 eigenvalues not converged
     c_bands:  5 eigenvalues not converged
     c_bands:  2 eigenvalues not converged
     c_bands:  3 eigenvalues not converged
     c_bands:  3 eigenvalues not converged
     c_bands:  1 eigenvalues not converged
     ethr =  5.43E-05,  avg # of iterations = 20.3

     negative rho (up, down):  1.018E-02 1.006E-02
 
     Adding external electric field

     Computed dipole along edir(3) : 
        Dipole                0.8565 Ry au,          2.1771 Debye
        Dipole field          0.0016 Ry au, 
 
        Potential amp.       -0.1498 Ry
        Total length         46.3494 bohr
 
 
     Adding external electric field

     Computed dipole along edir(3) : 
        Dipole                0.8565 Ry au,          2.1771 Debye
        Dipole field          0.0016 Ry au, 
 
        Potential amp.       -0.1498 Ry
        Total length         46.3494 bohr
 

     total cpu time spent up to now is     1123.8 secs

     total energy              =   -3330.69820759 Ry
     estimated scf accuracy    <      12.35505225 Ry

     total magnetization       =    -0.33 Bohr mag/cell
     absolute magnetization    =     0.39 Bohr mag/cell

     iteration # 41     ecut=    36.75 Ry     beta= 0.05
     Davidson diagonalization with overlap
     c_bands:  3 eigenvalues not converged
     c_bands:  2 eigenvalues not converged
     c_bands:  4 eigenvalues not converged
     c_bands:  5 eigenvalues not converged
     c_bands:  4 eigenvalues not converged
     c_bands:  3 eigenvalues not converged
     c_bands:  2 eigenvalues not converged
     c_bands:  3 eigenvalues not converged
     c_bands:  1 eigenvalues not converged
     c_bands:  3 eigenvalues not converged
     c_bands:  5 eigenvalues not converged
     c_bands:  5 eigenvalues not converged
     c_bands:  5 eigenvalues not converged
     c_bands:  5 eigenvalues not converged
     c_bands:  2 eigenvalues not converged
     ethr =  5.43E-05,  avg # of iterations = 20.4

     negative rho (up, down):  1.016E-02 1.006E-02
 
     Adding external electric field

     Computed dipole along edir(3) : 
        Dipole                0.8546 Ry au,          2.1722 Debye
        Dipole field          0.0016 Ry au, 
 
        Potential amp.       -0.1495 Ry
        Total length         46.3494 bohr
 
 
     Adding external electric field

     Computed dipole along edir(3) : 
        Dipole                0.8546 Ry au,          2.1722 Debye
        Dipole field          0.0016 Ry au, 
 
        Potential amp.       -0.1495 Ry
        Total length         46.3494 bohr
 

     total cpu time spent up to now is     1165.6 secs

     total energy              =   -3330.82237797 Ry
     estimated scf accuracy    <       0.12200005 Ry

     total magnetization       =    -0.01 Bohr mag/cell
     absolute magnetization    =     0.21 Bohr mag/cell

     iteration # 42     ecut=    36.75 Ry     beta= 0.05
     Davidson diagonalization with overlap
     ethr =  3.09E-05,  avg # of iterations =  6.7

     negative rho (up, down):  1.014E-02 1.007E-02
 
     Adding external electric field

     Computed dipole along edir(3) : 
        Dipole                0.8872 Ry au,          2.2551 Debye
        Dipole field          0.0017 Ry au, 
 
        Potential amp.       -0.1552 Ry
        Total length         46.3494 bohr
 
 
     Adding external electric field

     Computed dipole along edir(3) : 
        Dipole                0.8872 Ry au,          2.2551 Debye
        Dipole field          0.0017 Ry au, 
 
        Potential amp.       -0.1552 Ry
        Total length         46.3494 bohr
 

     total cpu time spent up to now is     1196.8 secs

     total energy              =   -3330.81882935 Ry
     estimated scf accuracy    <       0.12532032 Ry

     total magnetization       =     0.00 Bohr mag/cell
     absolute magnetization    =     0.21 Bohr mag/cell

     iteration # 43     ecut=    36.75 Ry     beta= 0.05
     Davidson diagonalization with overlap
     ethr =  3.09E-05,  avg # of iterations =  1.3

     negative rho (up, down):  1.020E-02 1.014E-02
 
     Adding external electric field

     Computed dipole along edir(3) : 
        Dipole                0.9123 Ry au,          2.3188 Debye
        Dipole field          0.0017 Ry au, 
 
        Potential amp.       -0.1596 Ry
        Total length         46.3494 bohr
 
 
     Adding external electric field

     Computed dipole along edir(3) : 
        Dipole                0.9123 Ry au,          2.3188 Debye
        Dipole field          0.0017 Ry au, 
 
        Potential amp.       -0.1596 Ry
        Total length         46.3494 bohr
 

     total cpu time spent up to now is     1214.2 secs

     total energy              =   -3330.81875970 Ry
     estimated scf accuracy    <       0.12729872 Ry

     total magnetization       =     0.01 Bohr mag/cell
     absolute magnetization    =     0.20 Bohr mag/cell

     iteration # 44     ecut=    36.75 Ry     beta= 0.05
     Davidson diagonalization with overlap
     ethr =  3.09E-05,  avg # of iterations =  1.0

     negative rho (up, down):  1.031E-02 1.026E-02
 
     Adding external electric field

     Computed dipole along edir(3) : 
        Dipole                0.9124 Ry au,          2.3191 Debye
        Dipole field          0.0017 Ry au, 
 
        Potential amp.       -0.1596 Ry
        Total length         46.3494 bohr
 
 
     Adding external electric field

     Computed dipole along edir(3) : 
        Dipole                0.9124 Ry au,          2.3191 Debye
        Dipole field          0.0017 Ry au, 
 
        Potential amp.       -0.1596 Ry
        Total length         46.3494 bohr
 

     total cpu time spent up to now is     1231.2 secs

     total energy              =   -3330.81892990 Ry
     estimated scf accuracy    <       0.12973178 Ry

     total magnetization       =     0.01 Bohr mag/cell
     absolute magnetization    =     0.21 Bohr mag/cell

     iteration # 45     ecut=    36.75 Ry     beta= 0.05
     Davidson diagonalization with overlap
     ethr =  3.09E-05,  avg # of iterations =  1.0

     negative rho (up, down):  1.021E-02 1.015E-02
 
     Adding external electric field

     Computed dipole along edir(3) : 
        Dipole                0.8897 Ry au,          2.2614 Debye
        Dipole field          0.0017 Ry au, 
 
        Potential amp.       -0.1556 Ry
        Total length         46.3494 bohr
 
 
     Adding external electric field

     Computed dipole along edir(3) : 
        Dipole                0.8897 Ry au,          2.2614 Debye
        Dipole field          0.0017 Ry au, 
 
        Potential amp.       -0.1556 Ry
        Total length         46.3494 bohr
 

     total cpu time spent up to now is     1248.2 secs

     total energy              =   -3330.81921822 Ry
     estimated scf accuracy    <       0.14635496 Ry

     total magnetization       =     0.00 Bohr mag/cell
     absolute magnetization    =     0.21 Bohr mag/cell

     iteration # 46     ecut=    36.75 Ry     beta= 0.05
     Davidson diagonalization with overlap
     ethr =  3.09E-05,  avg # of iterations =  1.0

     negative rho (up, down):  1.012E-02 1.005E-02
 
     Adding external electric field

     Computed dipole along edir(3) : 
        Dipole                0.8236 Ry au,          2.0933 Debye
        Dipole field          0.0016 Ry au, 
 
        Potential amp.       -0.1441 Ry
        Total length         46.3494 bohr
 
 
     Adding external electric field

     Computed dipole along edir(3) : 
        Dipole                0.8236 Ry au,          2.0933 Debye
        Dipole field          0.0016 Ry au, 
 
        Potential amp.       -0.1441 Ry
        Total length         46.3494 bohr
 

     total cpu time spent up to now is     1266.7 secs

     total energy              =   -3330.81659530 Ry
     estimated scf accuracy    <       0.10516280 Ry

     total magnetization       =     0.00 Bohr mag/cell
     absolute magnetization    =     0.21 Bohr mag/cell

     iteration # 47     ecut=    36.75 Ry     beta= 0.05
     Davidson diagonalization with overlap
     ethr =  2.66E-05,  avg # of iterations =  1.1

     negative rho (up, down):  1.011E-02 1.004E-02
 
     Adding external electric field

     Computed dipole along edir(3) : 
        Dipole                0.8209 Ry au,          2.0866 Debye
        Dipole field          0.0015 Ry au, 
 
        Potential amp.       -0.1436 Ry
        Total length         46.3494 bohr
 
 
     Adding external electric field

     Computed dipole along edir(3) : 
        Dipole                0.8209 Ry au,          2.0866 Debye
        Dipole field          0.0015 Ry au, 
 
        Potential amp.       -0.1436 Ry
        Total length         46.3494 bohr
 

     total cpu time spent up to now is     1283.9 secs

     total energy              =   -3330.81758753 Ry
     estimated scf accuracy    <       0.01983909 Ry

     total magnetization       =    -0.13 Bohr mag/cell
     absolute magnetization    =     0.35 Bohr mag/cell

     iteration # 48     ecut=    36.75 Ry     beta= 0.05
     Davidson diagonalization with overlap
     c_bands:  1 eigenvalues not converged
     c_bands:  2 eigenvalues not converged
     ethr =  5.02E-06,  avg # of iterations = 10.5

     negative rho (up, down):  1.012E-02 1.006E-02
 
     Adding external electric field

     Computed dipole along edir(3) : 
        Dipole                0.7886 Ry au,          2.0045 Debye
        Dipole field          0.0015 Ry au, 
 
        Potential amp.       -0.1380 Ry
        Total length         46.3494 bohr
 
 
     Adding external electric field

     Computed dipole along edir(3) : 
        Dipole                0.7886 Ry au,          2.0045 Debye
        Dipole field          0.0015 Ry au, 
 
        Potential amp.       -0.1380 Ry
        Total length         46.3494 bohr
 

     total cpu time spent up to now is     1316.7 secs

     total energy              =   -3330.81787419 Ry
     estimated scf accuracy    <       0.01781639 Ry

     total magnetization       =    -0.13 Bohr mag/cell
     absolute magnetization    =     0.34 Bohr mag/cell

     iteration # 49     ecut=    36.75 Ry     beta= 0.05
     Davidson diagonalization with overlap
     c_bands:  1 eigenvalues not converged
     ethr =  4.51E-06,  avg # of iterations =  3.6

     negative rho (up, down):  1.011E-02 1.004E-02
 
     Adding external electric field

     Computed dipole along edir(3) : 
        Dipole                0.7639 Ry au,          1.9417 Debye
        Dipole field          0.0014 Ry au, 
 
        Potential amp.       -0.1336 Ry
        Total length         46.3494 bohr
 
 
     Adding external electric field

     Computed dipole along edir(3) : 
        Dipole                0.7639 Ry au,          1.9417 Debye
        Dipole field          0.0014 Ry au, 
 
        Potential amp.       -0.1336 Ry
        Total length         46.3494 bohr
 

     total cpu time spent up to now is     1337.8 secs

     total energy              =   -3330.81706924 Ry
     estimated scf accuracy    <       0.03392205 Ry

     total magnetization       =    -0.11 Bohr mag/cell
     absolute magnetization    =     0.32 Bohr mag/cell

     iteration # 50     ecut=    36.75 Ry     beta= 0.05
     Davidson diagonalization with overlap
     c_bands:  1 eigenvalues not converged
     ethr =  4.51E-06,  avg # of iterations =  7.9

     negative rho (up, down):  1.021E-02 1.015E-02
 
     Adding external electric field

     Computed dipole along edir(3) : 
        Dipole                0.8034 Ry au,          2.0420 Debye
        Dipole field          0.0015 Ry au, 
 
        Potential amp.       -0.1405 Ry
        Total length         46.3494 bohr
 
 
     Adding external electric field

     Computed dipole along edir(3) : 
        Dipole                0.8034 Ry au,          2.0420 Debye
        Dipole field          0.0015 Ry au, 
 
        Potential amp.       -0.1405 Ry
        Total length         46.3494 bohr
 

     total cpu time spent up to now is     1362.6 secs

     total energy              =   -3330.81553670 Ry
     estimated scf accuracy    <       0.02847127 Ry

     total magnetization       =    -0.12 Bohr mag/cell
     absolute magnetization    =     0.35 Bohr mag/cell

     iteration # 51     ecut=    36.75 Ry     beta= 0.05
     Davidson diagonalization with overlap
     c_bands:  2 eigenvalues not converged
     c_bands:  2 eigenvalues not converged
     c_bands:  2 eigenvalues not converged
     c_bands:  2 eigenvalues not converged
     c_bands:  1 eigenvalues not converged
     c_bands:  1 eigenvalues not converged
     ethr =  4.51E-06,  avg # of iterations = 11.5

     negative rho (up, down):  1.017E-02 1.011E-02
 
     Adding external electric field

     Computed dipole along edir(3) : 
        Dipole                0.7973 Ry au,          2.0266 Debye
        Dipole field          0.0015 Ry au, 
 
        Potential amp.       -0.1395 Ry
        Total length         46.3494 bohr
 
 
     Adding external electric field

     Computed dipole along edir(3) : 
        Dipole                0.7973 Ry au,          2.0266 Debye
        Dipole field          0.0015 Ry au, 
 
        Potential amp.       -0.1395 Ry
        Total length         46.3494 bohr
 

     total cpu time spent up to now is     1388.8 secs

     total energy              =   -3330.81660349 Ry
     estimated scf accuracy    <       0.00393044 Ry

     total magnetization       =    -0.13 Bohr mag/cell
     absolute magnetization    =     0.34 Bohr mag/cell

     iteration # 52     ecut=    36.75 Ry     beta= 0.05
     Davidson diagonalization with overlap
     c_bands:  1 eigenvalues not converged
     c_bands:  1 eigenvalues not converged
     ethr =  9.95E-07,  avg # of iterations =  8.9

     negative rho (up, down):  1.017E-02 1.011E-02
 
     Adding external electric field

     Computed dipole along edir(3) : 
        Dipole                0.8188 Ry au,          2.0811 Debye
        Dipole field          0.0015 Ry au, 
 
        Potential amp.       -0.1432 Ry
        Total length         46.3494 bohr
 
 
     Adding external electric field

     Computed dipole along edir(3) : 
        Dipole                0.8188 Ry au,          2.0811 Debye
        Dipole field          0.0015 Ry au, 
 
        Potential amp.       -0.1432 Ry
        Total length         46.3494 bohr
 

     total cpu time spent up to now is     1411.6 secs

     total energy              =   -3330.81658619 Ry
     estimated scf accuracy    <       0.00357589 Ry

     total magnetization       =    -0.13 Bohr mag/cell
     absolute magnetization    =     0.36 Bohr mag/cell

     iteration # 53     ecut=    36.75 Ry     beta= 0.05
     Davidson diagonalization with overlap
     ethr =  9.05E-07,  avg # of iterations =  7.1

     negative rho (up, down):  1.030E-02 1.024E-02
 
     Adding external electric field

     Computed dipole along edir(3) : 
        Dipole                0.8333 Ry au,          2.1180 Debye
        Dipole field          0.0016 Ry au, 
 
        Potential amp.       -0.1458 Ry
        Total length         46.3494 bohr
 
 
     Adding external electric field

     Computed dipole along edir(3) : 
        Dipole                0.8333 Ry au,          2.1180 Debye
        Dipole field          0.0016 Ry au, 
 
        Potential amp.       -0.1458 Ry
        Total length         46.3494 bohr
 

     total cpu time spent up to now is     1433.3 secs

     total energy              =   -3330.81672597 Ry
     estimated scf accuracy    <       0.00145139 Ry

     total magnetization       =    -0.14 Bohr mag/cell
     absolute magnetization    =     0.37 Bohr mag/cell

     iteration # 54     ecut=    36.75 Ry     beta= 0.05
     Davidson diagonalization with overlap
     ethr =  3.67E-07,  avg # of iterations =  5.2

     negative rho (up, down):  1.038E-02 1.031E-02
 
     Adding external electric field

     Computed dipole along edir(3) : 
        Dipole                0.8357 Ry au,          2.1242 Debye
        Dipole field          0.0016 Ry au, 
 
        Potential amp.       -0.1462 Ry
        Total length         46.3494 bohr
 
 
     Adding external electric field

     Computed dipole along edir(3) : 
        Dipole                0.8357 Ry au,          2.1242 Debye
        Dipole field          0.0016 Ry au, 
 
        Potential amp.       -0.1462 Ry
        Total length         46.3494 bohr
 

     total cpu time spent up to now is     1454.0 secs

     total energy              =   -3330.81669718 Ry
     estimated scf accuracy    <       0.00658496 Ry

     total magnetization       =    -0.14 Bohr mag/cell
     absolute magnetization    =     0.37 Bohr mag/cell

     iteration # 55     ecut=    36.75 Ry     beta= 0.05
     Davidson diagonalization with overlap
     ethr =  3.67E-07,  avg # of iterations =  4.5

     negative rho (up, down):  1.035E-02 1.027E-02
 
     Adding external electric field

     Computed dipole along edir(3) : 
        Dipole                0.8417 Ry au,          2.1395 Debye
        Dipole field          0.0016 Ry au, 
 
        Potential amp.       -0.1473 Ry
        Total length         46.3494 bohr
 
 
     Adding external electric field

     Computed dipole along edir(3) : 
        Dipole                0.8417 Ry au,          2.1395 Debye
        Dipole field          0.0016 Ry au, 
 
        Potential amp.       -0.1473 Ry
        Total length         46.3494 bohr
 

     total cpu time spent up to now is     1478.6 secs

     total energy              =   -3330.81680272 Ry
     estimated scf accuracy    <       0.00164100 Ry

     total magnetization       =    -0.15 Bohr mag/cell
     absolute magnetization    =     0.41 Bohr mag/cell

     iteration # 56     ecut=    36.75 Ry     beta= 0.05
     Davidson diagonalization with overlap
     ethr =  3.67E-07,  avg # of iterations =  4.8

     negative rho (up, down):  1.025E-02 1.016E-02
 
     Adding external electric field

     Computed dipole along edir(3) : 
        Dipole                0.8333 Ry au,          2.1181 Debye
        Dipole field          0.0016 Ry au, 
 
        Potential amp.       -0.1458 Ry
        Total length         46.3494 bohr
 
 
     Adding external electric field

     Computed dipole along edir(3) : 
        Dipole                0.8333 Ry au,          2.1181 Debye
        Dipole field          0.0016 Ry au, 
 
        Potential amp.       -0.1458 Ry
        Total length         46.3494 bohr
 

     total cpu time spent up to now is     1500.8 secs

     total energy              =   -3330.81680696 Ry
     estimated scf accuracy    <       0.00148244 Ry

     total magnetization       =    -0.15 Bohr mag/cell
     absolute magnetization    =     0.44 Bohr mag/cell

     iteration # 57     ecut=    36.75 Ry     beta= 0.05
     Davidson diagonalization with overlap
     ethr =  3.67E-07,  avg # of iterations =  5.8

     negative rho (up, down):  1.021E-02 1.013E-02
 
     Adding external electric field

     Computed dipole along edir(3) : 
        Dipole                0.8146 Ry au,          2.0705 Debye
        Dipole field          0.0015 Ry au, 
 
        Potential amp.       -0.1425 Ry
        Total length         46.3494 bohr
 
 
     Adding external electric field

     Computed dipole along edir(3) : 
        Dipole                0.8146 Ry au,          2.0705 Debye
        Dipole field          0.0015 Ry au, 
 
        Potential amp.       -0.1425 Ry
        Total length         46.3494 bohr
 

     total cpu time spent up to now is     1525.4 secs

     total energy              =   -3330.81678718 Ry
     estimated scf accuracy    <       0.00112506 Ry

     total magnetization       =    -0.15 Bohr mag/cell
     absolute magnetization    =     0.48 Bohr mag/cell

     iteration # 58     ecut=    36.75 Ry     beta= 0.05
     Davidson diagonalization with overlap
     ethr =  2.85E-07,  avg # of iterations =  5.0

     negative rho (up, down):  1.020E-02 1.011E-02
 
     Adding external electric field

     Computed dipole along edir(3) : 
        Dipole                0.8055 Ry au,          2.0474 Debye
        Dipole field          0.0015 Ry au, 
 
        Potential amp.       -0.1409 Ry
        Total length         46.3494 bohr
 
 
     Adding external electric field

     Computed dipole along edir(3) : 
        Dipole                0.8055 Ry au,          2.0474 Debye
        Dipole field          0.0015 Ry au, 
 
        Potential amp.       -0.1409 Ry
        Total length         46.3494 bohr
 

     total cpu time spent up to now is     1546.7 secs

     total energy              =   -3330.81687027 Ry
     estimated scf accuracy    <       0.00044779 Ry

     total magnetization       =    -0.15 Bohr mag/cell
     absolute magnetization    =     0.50 Bohr mag/cell

     iteration # 59     ecut=    36.75 Ry     beta= 0.05
     Davidson diagonalization with overlap
     ethr =  1.13E-07,  avg # of iterations =  7.3

     negative rho (up, down):  1.021E-02 1.012E-02
 
     Adding external electric field

     Computed dipole along edir(3) : 
        Dipole                0.8105 Ry au,          2.0600 Debye
        Dipole field          0.0015 Ry au, 
 
        Potential amp.       -0.1418 Ry
        Total length         46.3494 bohr
 
 
     Adding external electric field

     Computed dipole along edir(3) : 
        Dipole                0.8105 Ry au,          2.0600 Debye
        Dipole field          0.0015 Ry au, 
 
        Potential amp.       -0.1418 Ry
        Total length         46.3494 bohr
 

     total cpu time spent up to now is     1568.9 secs

     total energy              =   -3330.81694021 Ry
     estimated scf accuracy    <       0.00044510 Ry

     total magnetization       =    -0.15 Bohr mag/cell
     absolute magnetization    =     0.54 Bohr mag/cell

     iteration # 60     ecut=    36.75 Ry     beta= 0.05
     Davidson diagonalization with overlap
     ethr =  1.13E-07,  avg # of iterations =  1.0

     negative rho (up, down):  1.024E-02 1.015E-02
 
     Adding external electric field

     Computed dipole along edir(3) : 
        Dipole                0.8188 Ry au,          2.0811 Debye
        Dipole field          0.0015 Ry au, 
 
[...]
        Total length         46.3494 bohr
 

     total cpu time spent up to now is    42202.8 secs

     total energy              =   -3331.71000955 Ry
     estimated scf accuracy    <       0.00018551 Ry

     total magnetization       =    -0.73 Bohr mag/cell
     absolute magnetization    =     1.01 Bohr mag/cell

     iteration #548     ecut=    36.75 Ry     beta= 0.05
     Davidson diagonalization with overlap
     ethr =  2.90E-10,  avg # of iterations =  8.4

     negative rho (up, down):  1.080E-02 9.842E-03
 
     Adding external electric field

     Computed dipole along edir(3) : 
        Dipole               -0.0659 Ry au,         -0.1675 Debye
        Dipole field         -0.0001 Ry au, 
 
        Potential amp.        0.0115 Ry
        Total length         46.3494 bohr
 
 
     Adding external electric field

     Computed dipole along edir(3) : 
        Dipole               -0.0659 Ry au,         -0.1675 Debye
        Dipole field         -0.0001 Ry au, 
 
        Potential amp.        0.0115 Ry
        Total length         46.3494 bohr
 

     total cpu time spent up to now is    42237.0 secs

     total energy              =   -3331.71001762 Ry
     estimated scf accuracy    <       0.00009077 Ry

     total magnetization       =    -0.71 Bohr mag/cell
     absolute magnetization    =     1.02 Bohr mag/cell

     iteration #549     ecut=    36.75 Ry     beta= 0.05
     Davidson diagonalization with overlap
     ethr =  2.90E-10,  avg # of iterations =  6.5

     negative rho (up, down):  1.079E-02 9.856E-03
 
     Adding external electric field

     Computed dipole along edir(3) : 
        Dipole               -0.0660 Ry au,         -0.1677 Debye
        Dipole field         -0.0001 Ry au, 
 
        Potential amp.        0.0115 Ry
        Total length         46.3494 bohr
 
 
     Adding external electric field

     Computed dipole along edir(3) : 
        Dipole               -0.0660 Ry au,         -0.1677 Debye
        Dipole field         -0.0001 Ry au, 
 
        Potential amp.        0.0115 Ry
        Total length         46.3494 bohr
 

     total cpu time spent up to now is    42263.3 secs

     total energy              =   -3331.70999418 Ry
     estimated scf accuracy    <       0.00012521 Ry

     total magnetization       =    -0.72 Bohr mag/cell
     absolute magnetization    =     1.01 Bohr mag/cell

     iteration #550     ecut=    36.75 Ry     beta= 0.05
     Davidson diagonalization with overlap
     ethr =  2.90E-10,  avg # of iterations = 10.2

     negative rho (up, down):  1.076E-02 9.883E-03
 
     Adding external electric field

     Computed dipole along edir(3) : 
        Dipole               -0.0661 Ry au,         -0.1679 Debye
        Dipole field         -0.0001 Ry au, 
 
        Potential amp.        0.0116 Ry
        Total length         46.3494 bohr
 
 
     Adding external electric field

     Computed dipole along edir(3) : 
        Dipole               -0.0661 Ry au,         -0.1679 Debye
        Dipole field         -0.0001 Ry au, 
 
        Potential amp.        0.0116 Ry
        Total length         46.3494 bohr
 

     total cpu time spent up to now is    42300.8 secs

     total energy              =   -3331.70995633 Ry
     estimated scf accuracy    <       0.00005306 Ry

     total magnetization       =    -0.70 Bohr mag/cell
     absolute magnetization    =     1.03 Bohr mag/cell

     iteration #551     ecut=    36.75 Ry     beta= 0.05
     Davidson diagonalization with overlap
     c_bands:  1 eigenvalues not converged
     ethr =  2.90E-10,  avg # of iterations = 12.4

     negative rho (up, down):  1.076E-02 9.891E-03
 
     Adding external electric field

     Computed dipole along edir(3) : 
        Dipole               -0.0661 Ry au,         -0.1679 Debye
        Dipole field         -0.0001 Ry au, 
 
        Potential amp.        0.0116 Ry
        Total length         46.3494 bohr
 
 
     Adding external electric field

     Computed dipole along edir(3) : 
        Dipole               -0.0661 Ry au,         -0.1679 Debye
        Dipole field         -0.0001 Ry au, 
 
        Potential amp.        0.0116 Ry
        Total length         46.3494 bohr
 

     total cpu time spent up to now is    42349.7 secs

     total energy              =   -3331.70998354 Ry
     estimated scf accuracy    <       0.00004630 Ry

     total magnetization       =    -0.64 Bohr mag/cell
     absolute magnetization    =     1.06 Bohr mag/cell

     iteration #552     ecut=    36.75 Ry     beta= 0.05
     Davidson diagonalization with overlap
     ethr =  2.90E-10,  avg # of iterations =  8.4

     negative rho (up, down):  1.076E-02 9.890E-03
 
     Adding external electric field

     Computed dipole along edir(3) : 
        Dipole               -0.0661 Ry au,         -0.1679 Debye
        Dipole field         -0.0001 Ry au, 
 
        Potential amp.        0.0116 Ry
        Total length         46.3494 bohr
 
 
     Adding external electric field

     Computed dipole along edir(3) : 
        Dipole               -0.0661 Ry au,         -0.1679 Debye
        Dipole field         -0.0001 Ry au, 
 
        Potential amp.        0.0116 Ry
        Total length         46.3494 bohr
 

     total cpu time spent up to now is    42380.8 secs

     total energy              =   -3331.70998633 Ry
     estimated scf accuracy    <       0.00006392 Ry

     total magnetization       =    -0.63 Bohr mag/cell
     absolute magnetization    =     1.07 Bohr mag/cell

     iteration #553     ecut=    36.75 Ry     beta= 0.05
     Davidson diagonalization with overlap
     ethr =  2.90E-10,  avg # of iterations =  1.4

     negative rho (up, down):  1.074E-02 9.909E-03
 
     Adding external electric field

     Computed dipole along edir(3) : 
        Dipole               -0.0662 Ry au,         -0.1681 Debye
        Dipole field         -0.0001 Ry au, 
 
        Potential amp.        0.0116 Ry
        Total length         46.3494 bohr
 
 
     Adding external electric field

     Computed dipole along edir(3) : 
        Dipole               -0.0662 Ry au,         -0.1681 Debye
        Dipole field         -0.0001 Ry au, 
 
        Potential amp.        0.0116 Ry
        Total length         46.3494 bohr
 

     total cpu time spent up to now is    42400.6 secs

     total energy              =   -3331.70996094 Ry
     estimated scf accuracy    <       0.00005930 Ry

     total magnetization       =    -0.63 Bohr mag/cell
     absolute magnetization    =     1.07 Bohr mag/cell

     iteration #554     ecut=    36.75 Ry     beta= 0.05
     Davidson diagonalization with overlap
     ethr =  2.90E-10,  avg # of iterations =  9.9

     negative rho (up, down):  1.075E-02 9.897E-03
 
     Adding external electric field

     Computed dipole along edir(3) : 
        Dipole               -0.0661 Ry au,         -0.1680 Debye
        Dipole field         -0.0001 Ry au, 
 
        Potential amp.        0.0116 Ry
        Total length         46.3494 bohr
 
 
     Adding external electric field

     Computed dipole along edir(3) : 
        Dipole               -0.0661 Ry au,         -0.1680 Debye
        Dipole field         -0.0001 Ry au, 
 
        Potential amp.        0.0116 Ry
        Total length         46.3494 bohr
 

     total cpu time spent up to now is    42441.8 secs

     total energy              =   -3331.70997747 Ry
     estimated scf accuracy    <       0.00014787 Ry

     total magnetization       =    -0.59 Bohr mag/cell
     absolute magnetization    =     1.08 Bohr mag/cell

     iteration #555     ecut=    36.75 Ry     beta= 0.05
     Davidson diagonalization with overlap
     ethr =  2.90E-10,  avg # of iterations =  8.3

     negative rho (up, down):  1.076E-02 9.885E-03
 
     Adding external electric field

     Computed dipole along edir(3) : 
        Dipole               -0.0661 Ry au,         -0.1679 Debye
        Dipole field         -0.0001 Ry au, 
 
        Potential amp.        0.0116 Ry
        Total length         46.3494 bohr
 
 
     Adding external electric field

     Computed dipole along edir(3) : 
        Dipole               -0.0661 Ry au,         -0.1679 Debye
        Dipole field         -0.0001 Ry au, 
 
        Potential amp.        0.0116 Ry
        Total length         46.3494 bohr
 

     total cpu time spent up to now is    42474.8 secs

     total energy              =   -3331.70998447 Ry
     estimated scf accuracy    <       0.00007141 Ry

     total magnetization       =    -0.62 Bohr mag/cell
     absolute magnetization    =     1.07 Bohr mag/cell

     iteration #556     ecut=    36.75 Ry     beta= 0.05
     Davidson diagonalization with overlap
     ethr =  2.90E-10,  avg # of iterations =  9.1

     negative rho (up, down):  1.077E-02 9.876E-03
 
     Adding external electric field

     Computed dipole along edir(3) : 
        Dipole               -0.0660 Ry au,         -0.1678 Debye
        Dipole field         -0.0001 Ry au, 
 
        Potential amp.        0.0115 Ry
        Total length         46.3494 bohr
 
 
     Adding external electric field

     Computed dipole along edir(3) : 
        Dipole               -0.0660 Ry au,         -0.1678 Debye
        Dipole field         -0.0001 Ry au, 
 
        Potential amp.        0.0115 Ry
        Total length         46.3494 bohr
 

     total cpu time spent up to now is    42514.2 secs

     total energy              =   -3331.70999111 Ry
     estimated scf accuracy    <       0.00003577 Ry

     total magnetization       =    -0.64 Bohr mag/cell
     absolute magnetization    =     1.06 Bohr mag/cell

     iteration #557     ecut=    36.75 Ry     beta= 0.05
     Davidson diagonalization with overlap
     ethr =  2.90E-10,  avg # of iterations =  8.3

     negative rho (up, down):  1.077E-02 9.871E-03
 
     Adding external electric field

     Computed dipole along edir(3) : 
        Dipole               -0.0660 Ry au,         -0.1678 Debye
        Dipole field         -0.0001 Ry au, 
 
        Potential amp.        0.0115 Ry
        Total length         46.3494 bohr
 
 
     Adding external electric field

     Computed dipole along edir(3) : 
        Dipole               -0.0660 Ry au,         -0.1678 Debye
        Dipole field         -0.0001 Ry au, 
 
        Potential amp.        0.0115 Ry
        Total length         46.3494 bohr
 

     total cpu time spent up to now is    42557.2 secs

     total energy              =   -3331.70999517 Ry
     estimated scf accuracy    <       0.00002783 Ry

     total magnetization       =    -0.66 Bohr mag/cell
     absolute magnetization    =     1.06 Bohr mag/cell

     iteration #558     ecut=    36.75 Ry     beta= 0.05
     Davidson diagonalization with overlap
     ethr =  2.90E-10,  avg # of iterations =  6.8

     negative rho (up, down):  1.078E-02 9.865E-03
 
     Adding external electric field

     Computed dipole along edir(3) : 
        Dipole               -0.0660 Ry au,         -0.1677 Debye
        Dipole field         -0.0001 Ry au, 
 
        Potential amp.        0.0115 Ry
        Total length         46.3494 bohr
 
 
     Adding external electric field

     Computed dipole along edir(3) : 
        Dipole               -0.0660 Ry au,         -0.1677 Debye
        Dipole field         -0.0001 Ry au, 
 
        Potential amp.        0.0115 Ry
        Total length         46.3494 bohr
 

     total cpu time spent up to now is    42583.9 secs

     total energy              =   -3331.70999779 Ry
     estimated scf accuracy    <       0.00002649 Ry

     total magnetization       =    -0.67 Bohr mag/cell
     absolute magnetization    =     1.05 Bohr mag/cell

     iteration #559     ecut=    36.75 Ry     beta= 0.05
     Davidson diagonalization with overlap
     ethr =  2.90E-10,  avg # of iterations =  6.7

     negative rho (up, down):  1.079E-02 9.851E-03
 
     Adding external electric field

     Computed dipole along edir(3) : 
        Dipole               -0.0659 Ry au,         -0.1676 Debye
        Dipole field         -0.0001 Ry au, 
 
        Potential amp.        0.0115 Ry
        Total length         46.3494 bohr
 
 
     Adding external electric field

     Computed dipole along edir(3) : 
        Dipole               -0.0659 Ry au,         -0.1676 Debye
        Dipole field         -0.0001 Ry au, 
 
        Potential amp.        0.0115 Ry
        Total length         46.3494 bohr
 

     total cpu time spent up to now is    42617.8 secs

     total energy              =   -3331.70999917 Ry
     estimated scf accuracy    <       0.00002390 Ry

     total magnetization       =    -0.68 Bohr mag/cell
     absolute magnetization    =     1.04 Bohr mag/cell

     iteration #560     ecut=    36.75 Ry     beta= 0.05
     Davidson diagonalization with overlap
     ethr =  2.90E-10,  avg # of iterations = 10.3

     negative rho (up, down):  1.078E-02 9.863E-03
 
     Adding external electric field

     Computed dipole along edir(3) : 
        Dipole               -0.0660 Ry au,         -0.1677 Debye
        Dipole field         -0.0001 Ry au, 
 
        Potential amp.        0.0115 Ry
        Total length         46.3494 bohr
 
 
     Adding external electric field

     Computed dipole along edir(3) : 
        Dipole               -0.0660 Ry au,         -0.1677 Debye
        Dipole field         -0.0001 Ry au, 
 
        Potential amp.        0.0115 Ry
        Total length         46.3494 bohr
 

     total cpu time spent up to now is    42658.2 secs

     total energy              =   -3331.70999338 Ry
     estimated scf accuracy    <       0.00006268 Ry

     total magnetization       =    -0.71 Bohr mag/cell
     absolute magnetization    =     1.02 Bohr mag/cell

     iteration #561     ecut=    36.75 Ry     beta= 0.05
     Davidson diagonalization with overlap
     ethr =  2.90E-10,  avg # of iterations = 10.1

     negative rho (up, down):  1.076E-02 9.880E-03
 
     Adding external electric field

     Computed dipole along edir(3) : 
        Dipole               -0.0661 Ry au,         -0.1679 Debye
        Dipole field         -0.0001 Ry au, 
 
        Potential amp.        0.0116 Ry
        Total length         46.3494 bohr
 
 
     Adding external electric field

     Computed dipole along edir(3) : 
        Dipole               -0.0661 Ry au,         -0.1679 Debye
        Dipole field         -0.0001 Ry au, 
 
        Potential amp.        0.0116 Ry
        Total length         46.3494 bohr
 

     total cpu time spent up to now is    42696.7 secs

     total energy              =   -3331.70997665 Ry
     estimated scf accuracy    <       0.00002845 Ry

     total magnetization       =    -0.68 Bohr mag/cell
     absolute magnetization    =     1.04 Bohr mag/cell

     iteration #562     ecut=    36.75 Ry     beta= 0.05
     Davidson diagonalization with overlap
     ethr =  2.90E-10,  avg # of iterations = 10.7

     negative rho (up, down):  1.077E-02 9.877E-03
 
     Adding external electric field

     Computed dipole along edir(3) : 
        Dipole               -0.0660 Ry au,         -0.1679 Debye
        Dipole field         -0.0001 Ry au, 
 
        Potential amp.        0.0116 Ry
        Total length         46.3494 bohr
 
 
     Adding external electric field

     Computed dipole along edir(3) : 
        Dipole               -0.0660 Ry au,         -0.1679 Debye
        Dipole field         -0.0001 Ry au, 
 
        Potential amp.        0.0116 Ry
        Total length         46.3494 bohr
 

     total cpu time spent up to now is    42741.5 secs

     total energy              =   -3331.70999260 Ry
     estimated scf accuracy    <       0.00003225 Ry

     total magnetization       =    -0.65 Bohr mag/cell
     absolute magnetization    =     1.06 Bohr mag/cell

     iteration #563     ecut=    36.75 Ry     beta= 0.05
     Davidson diagonalization with overlap
     ethr =  2.90E-10,  avg # of iterations =  4.3

     negative rho (up, down):  1.076E-02 9.884E-03
 
     Adding external electric field

     Computed dipole along edir(3) : 
        Dipole               -0.0660 Ry au,         -0.1679 Debye
        Dipole field         -0.0001 Ry au, 
 
        Potential amp.        0.0116 Ry
        Total length         46.3494 bohr
 
 
     Adding external electric field

     Computed dipole along edir(3) : 
        Dipole               -0.0660 Ry au,         -0.1679 Debye
        Dipole field         -0.0001 Ry au, 
 
        Potential amp.        0.0116 Ry
        Total length         46.3494 bohr
 

     total cpu time spent up to now is    42762.2 secs

     total energy              =   -3331.70998787 Ry
     estimated scf accuracy    <       0.00002627 Ry

     total magnetization       =    -0.65 Bohr mag/cell
     absolute magnetization    =     1.06 Bohr mag/cell

     iteration #564     ecut=    36.75 Ry     beta= 0.05
     Davidson diagonalization with overlap
     ethr =  2.90E-10,  avg # of iterations =  6.4

     negative rho (up, down):  1.076E-02 9.888E-03
 
     Adding external electric field

     Computed dipole along edir(3) : 
        Dipole               -0.0661 Ry au,         -0.1679 Debye
        Dipole field         -0.0001 Ry au, 
 
        Potential amp.        0.0116 Ry
        Total length         46.3494 bohr
 
 
     Adding external electric field

     Computed dipole along edir(3) : 
        Dipole               -0.0661 Ry au,         -0.1679 Debye
        Dipole field         -0.0001 Ry au, 
 
        Potential amp.        0.0116 Ry
        Total length         46.3494 bohr
 

     total cpu time spent up to now is    42793.8 secs

     total energy              =   -3331.70998603 Ry
     estimated scf accuracy    <       0.00003911 Ry

     total magnetization       =    -0.64 Bohr mag/cell
     absolute magnetization    =     1.06 Bohr mag/cell

     iteration #565     ecut=    36.75 Ry     beta= 0.05
     Davidson diagonalization with overlap
     ethr =  2.90E-10,  avg # of iterations =  6.4

     negative rho (up, down):  1.075E-02 9.896E-03
 
     Adding external electric field

     Computed dipole along edir(3) : 
        Dipole               -0.0661 Ry au,         -0.1680 Debye
        Dipole field         -0.0001 Ry au, 
 
        Potential amp.        0.0116 Ry
        Total length         46.3494 bohr
 
 
     Adding external electric field

     Computed dipole along edir(3) : 
        Dipole               -0.0661 Ry au,         -0.1680 Debye
        Dipole field         -0.0001 Ry au, 
 
        Potential amp.        0.0116 Ry
        Total length         46.3494 bohr
 

     total cpu time spent up to now is    42829.6 secs

     total energy              =   -3331.70997897 Ry
     estimated scf accuracy    <       0.00005477 Ry

     total magnetization       =    -0.63 Bohr mag/cell
     absolute magnetization    =     1.07 Bohr mag/cell

     iteration #566     ecut=    36.75 Ry     beta= 0.05
     Davidson diagonalization with overlap
     ethr =  2.90E-10,  avg # of iterations =  8.4

     negative rho (up, down):  1.076E-02 9.885E-03
 
     Adding external electric field

     Computed dipole along edir(3) : 
        Dipole               -0.0661 Ry au,         -0.1679 Debye
        Dipole field         -0.0001 Ry au, 
 
        Potential amp.        0.0116 Ry
        Total length         46.3494 bohr
 
 
     Adding external electric field

     Computed dipole along edir(3) : 
        Dipole               -0.0661 Ry au,         -0.1679 Debye
        Dipole field         -0.0001 Ry au, 
 
        Potential amp.        0.0116 Ry
        Total length         46.3494 bohr
 

     total cpu time spent up to now is    42867.4 secs

     total energy              =   -3331.70998472 Ry
     estimated scf accuracy    <       0.00008298 Ry

     total magnetization       =    -0.61 Bohr mag/cell
     absolute magnetization    =     1.07 Bohr mag/cell

     iteration #567     ecut=    36.75 Ry     beta= 0.05
     Davidson diagonalization with overlap
